<?xml version="1.0"?>
<VTKFile type="UnstructuredGrid"  version="0.1"  >
<UnstructuredGrid>
<Piece  NumberOfPoints="4940" NumberOfCells="9650">
<Points>
<DataArray  type="Float64"  NumberOfComponents="3"  format="ascii">500 250 0  0 250 0  250 500 0  250 0 0  256.8885856082646 499.9050767557906 0  263.7719401218049 499.6203791065173 0  270.6448364229772 499.1461232471188 0  277.5020553257866 498.4826693209355 0  284.3383895508592 497.6305211460281 0  291.1486476865662 496.5903258312597 0  297.9276581259182 495.3628732847843 0  304.6702729675493 493.9490956196674 0  311.3713719748657 492.3500664368026 0  318.0258664141369 490.5670000199653 0  324.6287029687753 488.6012504015818 0  331.1748675330201 486.4543103455647 0  337.6593890460416 484.1278102064655 0  344.0773432429536 481.6235166997244 0  350.4238564271474 478.9433315480048 0  356.694109139292 476.0892900492477 0  362.88333985546 473.0635595140469 0  368.9868485575419 469.8684376402048 0  375.0000003153078 466.5063507640667 0  380.9182288257928 462.9798520074548 0  386.7370398729688 459.2916193419558 0  392.4520147244077 455.444453565817 0  398.0588135356345 451.4412761437442 0  403.5531785622926 447.285127045646 0  408.9309374414144 442.9791624087773 0  414.1880064015299 438.5266521049243 0  419.3203932989752 433.9309773069245 0  424.324200661095 429.1956279150535 0  429.1956286596235 424.3241998957182 0  433.9309780058756 419.3203925397119 0  438.5266527445345 414.1880056671062 0  442.9791630130591 408.9309367076756 0  447.2851276060475 403.5531778422888 0  451.4412766621026 398.0588128303826 0  455.4444540361634 392.4520140460735 0  459.2916197786263 386.7370392045948 0  462.9798524073514 380.9182281752347 0  466.5063511234856 374.9999996927758 0  469.8684379657123 368.9868479560565 0  473.0635598144817 362.8833392617846 0  476.0892903190255 356.6941085676214 0  478.9433317963513 350.4238558609745 0  481.6235169154735 344.0773427117675 0  484.12781039012 337.6593885555221 0  486.4543105028062 331.1748670749914 0  488.601250531677 324.6287025528375 0  490.5670001317469 318.0258660188321 0  492.3500665291326 311.3713716102628 0  493.949095695951 304.6702726271575 0  495.3628733416623 297.9276578347343 0  496.5903258712341 291.1486474470129 0  497.6305211749058 284.3383893426084 0  498.4826693388848 277.502055163614 0  499.1461232580606 270.6448362909296 0  499.6203791109319 263.7719400417897 0  499.9050767571306 256.8885855596534 0  499.9050767559877 243.1114143988867 0  499.6203791069493 236.2280598860241 0  499.1461232485393 229.3551635941651 0  498.4826693235677 222.4979446979962 0  497.6305211491849 215.6616104719064 0  496.5903258357701 208.8513523404629 0  495.3628732906988 202.0723419043604 0  493.9490956264813 195.3297270628552 0  492.3500664487791 188.6286280724281 0  490.5670000344809 181.9741336371959 0  488.6012504175981 175.3712970824318 0  486.4543103623226 168.8251325157939 0  484.1278102222298 162.3406109960628 0  481.6235167152198 155.9226567951971 0  478.9433315621651 149.5761436051346 0  476.0892900516498 143.3058908657982 0  473.063559513628 137.1166601437124 0  469.8684376406648 131.0131514433083 0  466.5063507675389 124.9999996907064 0  462.9798520124137 119.0817711822745 0  459.2916193464549 113.2629601339176 0  455.4444535642773 107.5479852733717 0  451.4412761528674 101.9411864767781 0  447.2851270583545 96.44682145403524 0  442.9791624165781 91.06906256805769 0  438.5266521117469 85.81199360630404 0  433.9309773156125 80.67960671046254 0  429.1956279150353 75.67579933888632 0  424.3241998888952 70.80437133373906 0  419.3203925223282 66.06902197812161 0  414.1880056411937 61.47334723289828 0  408.9309366751728 57.0208369601728 0  403.5531778009394 52.71487236176898 0  398.058812796452 48.55872331295853 0  392.4520140187753 44.55554594490843 0  386.7370391799677 40.70838020528396 0  380.9182281475119 37.02014757560744 0  374.9999996718656 33.49364886444181 0  368.9868479340393 30.13156202237255 0  362.8833392380029 26.93644017348339 0  356.6941085456942 23.91070967062674 0  350.4238558420009 21.0566681953261 0  344.0773426899492 18.37648307566465 0  337.6593885328982 15.87218960140942 0  331.1748670549786 13.54568949032341 0  324.6287025315056 11.39874946165088 0  318.0258660010876 9.432999863235466 0  311.3713716017894 7.649933468721599 0  304.6702726190621 6.050904302234756 0  297.9276578269805 4.637126656823085 0  291.148647441857 3.409674127905504 0  284.3383893425031 2.369478825079682 0  277.502055159398 1.517330660648639 0  270.6448362875833 0.853876741662134 0  263.7719400401456 0.3796208889774277 0  256.8885855592052 0.09492324285704967 0  243.1114143979462 0.09492324403817065 0  236.2280598850882 0.3796208931023841 0  229.3551635938215 0.8538767514891958 0  222.4979446968584 1.517330676558146 0  215.6616104703111 2.369478851036291 0  208.8513523382973 3.409674164591252 0  202.0723419066374 4.637126708856528 0  195.3297270659513 6.050904372824903 0  188.628628074828 7.649933550613184 0  181.9741336377093 9.432999965373938 0  175.3712970793675 11.39874958336037 0  168.8251325057572 13.54568964112298 0  162.340610986655 15.87218978129263 0  155.9226567874317 18.37648328793418 0  149.576143602509 21.05666843898663 0  143.3058908718157 23.91070994551046 0  137.1166601505524 26.93644048291054 0  131.0131514451933 30.13156235831508 0  124.9999996848412 33.49364923584736 0  119.0817711715717 37.0201479941652 0  113.2629601211624 40.70838066187849 0  107.5479852622251 44.55554644345162 0  101.9411864693332 48.55872385260452 0  96.44682143286516 52.71487295812284 0  91.06906254351222 57.02083760363669 0  85.81199358272519 61.4733479087879 0  80.67960667988106 66.06902271253972 0  75.67579930062769 70.80437212218331 0  70.80437129287643 75.67580015310926 0  66.06902193673014 80.67960752263491 0  61.47334718684866 85.81199441168215 0  57.02083692524275 91.0690633672404 0  52.71487232786438 96.44682224262129 0  48.55872328070024 101.941187247437 0  44.55554591578033 107.5479860232332 0  40.7083801742321 113.2629608675606 0  37.02014754791168 119.0817718975441 0  33.49364883372994 125.000000381329 0  30.13156199866361 131.0131521097709 0  26.9364401549829 137.1166607985551 0  23.91070965524918 143.3058914868915 0  21.05666818346614 149.576144185037 0  18.37648306853811 155.9226573275967 0  15.8721895918909 162.3406114925245 0  13.54568948170046 168.8251329701392 0  11.39874945301878 175.3712974960928 0  9.432999857087736 181.9741340206533 0  7.649933466342702 188.6286284076045 0  6.050904301250966 195.3297273853278 0  4.637126656808988 202.0723421730917 0  3.409674127767772 208.8513525589684 0  2.369478824521138 215.6616106615248 0  1.517330660909465 222.4979448382452 0  0.8538767414496533 229.355163714981 0  0.3796208887135322 236.2280599646376 0  0.09492324266324204 243.1114144478261 0  0.0949232442452228 256.8885856095658 0  0.3796208935834784 263.7719401236316 0  0.8538767530323526 270.6448364248016 0  1.517330679476544 277.5020553295092 0  2.369478854618649 284.3383895555228 0  3.409674170191892 291.1486476952655 0  4.6371267162381 297.9276581311522 0  6.050904381420935 304.6702729724059 0  7.649933562385399 311.3713719716595 0  9.43299997979841 318.0258664133013 0  11.3987495994252 324.6287029719946 0  13.54568965885832 331.174867545904 0  15.87218979367188 337.6593890464085 0  18.37648329843151 344.0773432384132 0  21.05666844777872 350.423856417535 0  23.91070995156048 356.6941091410045 0  26.93644048988043 362.8833398632205 0  30.13156235982007 368.9868485575877 0  33.49364924138357 375.0000003247478 0  37.0201480006036 380.9182288389023 0  40.70838066758398 386.7370398875706 0  44.55554644477201 392.4520147396792 0  48.55872386086904 398.0588135419111 0  52.71487295981296 403.5531785693063 0  57.02083760525949 408.9309374584583 0  61.47334790862246 414.1880064170849 0  66.06902271205095 419.320393319588 0  70.80437211216579 424.3242006890749 0  75.67580013809859 429.195628692521 0  80.6796075127923 433.930978054209 0  85.81199439754931 438.5266528008431 0  91.06906334717917 442.9791630582355 0  96.44682221438322 447.2851276501571 0  101.9411872243843 451.441276702356 0  107.5479859945825 455.4444540643537 0  113.2629608446994 459.2916198108319 0  119.0817718768376 462.9798524393601 0  125.0000003647644 466.5063511567065 0  131.0131521012763 469.8684379967393 0  137.1166607840049 473.0635598376539 0  143.3058914748804 476.0892903390826 0  149.5761441732679 478.9433318113714 0  155.9226573130112 481.6235169255377 0  162.3406114779862 484.1278104026658 0  168.8251329570439 486.4543105138039 0  175.3712974805475 488.601250542119 0  181.9741340135204 490.5670001408953 0  188.6286284005059 492.3500665318597 0  195.3297273788229 493.9490956972913 0  202.0723421640089 495.3628733414168 0  208.8513525529672 496.5903258712308 0  215.6616106544547 497.6305211744985 0  222.4979448327038 498.4826693384772 0  229.3551637102845 499.1461232581612 0  236.2280599621369 499.6203791111485 0  243.1114144470173 499.9050767573145 0  155.2373389820306 474.8197567317462 0  25.36256300907667 153.9152755065208 0  432.3709625126712 412.6214396304305 0  6.013151705810699 246.637913163471 0  246.6379131630491 493.986848294322 0  338.6995838441862 22.68244767887072 0  477.3175523131281 338.6995838660569 0  493.9868482700757 246.6379131399102 0  246.6201155078769 6.218451882810491 0  417.6179310263282 72.7156044707053 0  102.2232990934413 445.0100869616822 0  63.66330858966404 92.20354579482142 0  391.3105220491464 50.73522820883105 0  72.79295043967942 418.0702734974704 0  448.290574428537 108.25674339002 0  402.4604651193511 440.7462829841712 0  97.55317348421397 59.11376320116034 0  136.7376477664901 33.58246472647134 0  363.3288394375288 465.6947312928271 0  44.0678766556007 381.0860953771871 0  469.6905266180034 142.3890690100806 0  22.68244791668644 338.6995843487432 0  338.699584349159 477.317552078365 0  173.389488083762 18.6681884918202 0  483.4809734778481 179.7121987795732 0  13.50237455842738 306.4709525540879 0  305.9825168523021 487.24416992
[...]
<PointData  Vectors="f_12"> 
<DataArray  type="Float64"  Name="f_12"  NumberOfComponents="3" format="ascii">3.1322196806535785e-03 2.6410986477657084e-01 4.5556856233242571e-01  3.1722428048398285e-03 2.6358394860410772e-01 4.7163304977093878e-01  3.3048214430247227e-03 2.8481975414127092e-01 4.3794090421422072e-01  3.3008002784271715e-03 2.6836238956980940e-01 4.9793676142059251e-01  3.3049903937002380e-03 2.8488697807459257e-01 4.3774843420219689e-01  3.3049277684330178e-03 2.8492646190516757e-01 4.3758125361201350e-01  3.3046316440582479e-03 2.8494149485425452e-01 4.3742212687471893e-01  3.3041019491716031e-03 2.8493001745899948e-01 4.3728127798136546e-01  3.3033390505287225e-03 2.8489185823914853e-01 4.3715963279655584e-01  3.3023442504455814e-03 2.8482787466212739e-01 4.3705339071063198e-01  3.3011189714458461e-03 2.8473788883984530e-01 4.3696414075763113e-01  3.2996655264130276e-03 2.8462202123140989e-01 4.3689229028793097e-01  3.2979864336461469e-03 2.8448071647703904e-01 4.3683663061159761e-01  3.2960867144578247e-03 2.8431390281510027e-01 4.3679990392794316e-01  3.2939776250195487e-03 2.8412104885671791e-01 4.3679050049049123e-01  3.2916451975591675e-03 2.8390602799579029e-01 4.3678113975985122e-01  3.2891222700636236e-03 2.8366475709503214e-01 4.3680930614560137e-01  3.2863841757941729e-03 2.8340210133079469e-01 4.3683680263553937e-01  3.2834629562367816e-03 2.8311584938985807e-01 4.3689184974641276e-01  3.2803546554890576e-03 2.8280782057462434e-01 4.3696222919757804e-01  3.2770654810355192e-03 2.8247838549840076e-01 4.3704881341042096e-01  3.2736316707862060e-03 2.8212875935895965e-01 4.3716485386834603e-01  3.2700371601862149e-03 2.8175965270628239e-01 4.3729696668010787e-01  3.2662592179543599e-03 2.8137101096458800e-01 4.3743213616506993e-01  3.2623528617557623e-03 2.8096452461428106e-01 4.3759141742652530e-01  3.2583346761184953e-03 2.8054188674020925e-01 4.3777444901003615e-01  3.2542424092361307e-03 2.8010579036330158e-01 4.3798756094426244e-01  3.2499863961239590e-03 2.7965189223272624e-01 4.3820228016012674e-01  3.2456252033546285e-03 2.7918355126899508e-01 4.3843304984812786e-01  3.2412534985318429e-03 2.7870719934309240e-01 4.3869869020635233e-01  3.2367478013493271e-03 2.7821512034325946e-01 4.3896894854808977e-01  3.2322088202777406e-03 2.7771452206636321e-01 4.3926210967208429e-01  3.2276669612424924e-03 2.7720786032402644e-01 4.3958144010740952e-01  3.2230089780163865e-03 2.7668701396073242e-01 4.3990455567090742e-01  3.2184115449584733e-03 2.7616566414144761e-01 4.4025877286520188e-01  3.2138058602913118e-03 2.7563871573162985e-01 4.4063080220146889e-01  3.2091049066983917e-03 2.7509914958875220e-01 4.4100711840759638e-01  3.2044917656230635e-03 2.7456210405775899e-01 4.4141135020539135e-01  3.1999974649502242e-03 2.7403069988898765e-01 4.4184381578807574e-01  3.1954879138562523e-03 2.7349353973450519e-01 4.4228699866766058e-01  3.1909464076491528e-03 2.7294898294236952e-01 4.4273894296411614e-01  3.1865619040764908e-03 2.7241386157716202e-01 4.4321808350242409e-01  3.1823061039131335e-03 2.7188594468509236e-01 4.4371928724013010e-01  3.1780931596359437e-03 2.7135744485214436e-01 4.4423330121234433e-01  3.1740165237730670e-03 2.7083695818003845e-01 4.4476746874648770e-01  3.1700686686473925e-03 2.7032387519046996e-01 4.4531983908570633e-01  3.1662382933313796e-03 2.6981718640147823e-01 4.4588842650712962e-01  3.1625059886169764e-03 2.6931495949409429e-01 4.4647135719462133e-01  3.1590162193975576e-03 2.6883115309267336e-01 4.4707734736538862e-01  3.1556685025011973e-03 2.6835614311389477e-01 4.4769879372427812e-01  3.1524888691102297e-03 2.6789243743245306e-01 4.4833625275670375e-01  3.1495032442758462e-03 2.6744258911472585e-01 4.4899093263943041e-01  3.1466380030288309e-03 2.6699939460124533e-01 4.4965773078424970e-01  3.1440884716805373e-03 2.6658216074454416e-01 4.5034652415013954e-01  3.1417081963194984e-03 2.6617644574691368e-01 4.5104869096258027e-01  3.1394922738964318e-03 2.6578170368596121e-01 4.5176378260459027e-01  3.1375367382010639e-03 2.6540767531207388e-01 4.5249547437018245e-01  3.1358208115079256e-03 2.6505224728538640e-01 4.5324212499439798e-01  3.1343321252646512e-03 2.6471428887982440e-01 4.5400252259457513e-01  3.1329237880509809e-03 2.6437881041754674e-01 4.5477105875305718e-01  3.1312801239428605e-03 2.6381117104495067e-01 4.5636263561683332e-01  3.1307646039226162e-03 2.6355032529908329e-01 4.5717467296527869e-01  3.1304145309211003e-03 2.6330089252911415e-01 4.5799618833065597e-01  3.1304364860923924e-03 2.6308459096300701e-01 4.5883186062416770e-01  3.1307095822274609e-03 2.6288885133165923e-01 4.5967782336673829e-01  3.1311901721720473e-03 2.6270938438786723e-01 4.6053256792536817e-01  3.1318441150428038e-03 2.6254253561999175e-01 4.6139522344154404e-01  3.1328254221073960e-03 2.6240480700718061e-01 4.6226787803412378e-01  3.1340288200851722e-03 2.6228526103780009e-01 4.6314799374017768e-01  3.1354201941549919e-03 2.6218052341083636e-01 4.6403474048277082e-01  3.1372069224338680e-03 2.6211280962476047e-01 4.6492923675928538e-01  3.1390703546774899e-03 2.6204844497833346e-01 4.6582814934539291e-01  3.1410999353470009e-03 2.6199720647155605e-01 4.6673176223132085e-01  3.1434873125006186e-03 2.6197992883370214e-01 4.6764008039712796e-01  3.1460702045608543e-03 2.6197954313563948e-01 4.6855138023059462e-01  3.1488429909443515e-03 2.6199562705031321e-01 4.6946500132938551e-01  3.1517962736781007e-03 2.6202752901147358e-01 4.7038020548571491e-01  3.1549143565250317e-03 2.6207386324137544e-01 4.7129632659163162e-01  3.1582288189322166e-03 2.6213847772136367e-01 4.7221216205450967e-01  3.1618076465156266e-03 2.6222928779947402e-01 4.7312512986716032e-01  3.1653599336997833e-03 2.6231434857936758e-01 4.7403944003088772e-01  3.1691879839192195e-03 2.6242798756351959e-01 4.7494836677426255e-01  3.1730803355433596e-03 2.6254673078845381e-01 4.7585500942372827e-01  3.1771612338213876e-03 2.6268508615506281e-01 4.7675537249947575e-01  3.1813077483468558e-03 2.6282968044276345e-01 4.7765140235176812e-01  3.1855777239324558e-03 2.6298753664814623e-01 4.7854013078323299e-01  3.1899434986947758e-03 2.6315607352932674e-01 4.7942093391497781e-01  3.1943867311063205e-03 2.6333369914748794e-01 4.8029310971896305e-01  3.1988939354874856e-03 2.6351940697094944e-01 4.8115574471584904e-01  3.2034442177461177e-03 2.6371127887759249e-01 4.8200835305610640e-01  3.2080448235086048e-03 2.6391082780702535e-01 4.8284879927866226e-01  3.2126711199506374e-03 2.6411571792686545e-01 4.8367666965893424e-01  3.2172732030919097e-03 2.6432033540932265e-01 4.8449449945126244e-01  3.2219007146370459e-03 2.6453165524082839e-01 4.8529593208768340e-01  3.2265720363646349e-03 2.6475286817021293e-01 4.8607608300521182e-01  3.2311397242004679e-03 2.6496564441889037e-01 4.8684838985421830e-01  3.2356644246636541e-03 2.6517851988651525e-01 4.8760438428325659e-01  3.2401912720672835e-03 2.6539838430407509e-01 4.8833534063497375e-01  3.2446025925381805e-03 2.6561004006059985e-01 4.8905517408973703e-01  3.2489347669882817e-03 2.6581924354969749e-01 4.8975614160676412e-01  3.2532305167263368e-03 2.6603315918610621e-01 4.9042703159031037e-01  3.2574057065476569e-03 2.6624058623079228e-01 4.9107929015279772e-01  3.2614491350497197e-03 2.6644038066225267e-01 4.9171433001607057e-01  3.2653622100044079e-03 2.6663368681178151e-01 4.9232839576714149e-01  3.2691555112419651e-03 2.6682317303244329e-01 4.9291489651096576e-01  3.2727960735414808e-03 2.6700439297523421e-01 4.9347963671596956e-01  3.2762826748480760e-03 2.6717810564098365e-01 4.9401930219309664e-01  3.2796070553430009e-03 2.6734395692033242e-01 4.9453228875576055e-01  3.2827543984040603e-03 2.6750009941369329e-01 4.9502092553985028e-01  3.2857152286926276e-03 2.6764536187182097e-01 4.9548691543060813e-01  3.2884899274348094e-03 2.6778137947575414e-01 4.9592328329638397e-01  3.2910726766321218e-03 2.6790818236647146e-01 4.9632767011930246e-01  3.2934497522346972e-03 2.6802345872002586e-01 4.9670499487458408e-01  3.2956150471327929e-03 2.6812677950875824e-01 4.9705469142916475e-01  3.2975652862528462e-03 2.6821811581406185e-01 4.9737592524059859e-01  3.2992941707526416e-03 2.6829642786018659e-01 4.9767115504279524e-01  3.3020726725375019e-03 2.6841786438228449e-01 4.9815769217062589e-01  3.3031292902965179e-03 2.6845465193233253e-01 4.9838532475246522e-01  3.3039446917099997e-03 2.6848516971968456e-01 4.9854408794111288e-01  3.3045292077112307e-03 2.6849901302816293e-01 4.9869170306477084e-01  3.3048793202006201e-03 2.6850011013918568e-01 4.9880668636571451e-01  3.3049965068296431e-03 2.6848899874417009e-01 4.9888712262671320e-01  3.3048821906807892e-03 2.6846467674646102e-01 4.9893900730738389e-01  3.3045362398999027e-03 2.6842698213810795e-01 4.9896271112304874e-01  3.3039637745458741e-03 2.6837861006913993e-01 4.9894720370136864e-01  3.3031622232484446e-03 2.6831353938210734e-01 4.9892100661539912e-01  3.3021408918275240e-03 2.6824013260919283e-01 4.9884743641097756e-01  3.3009043475333631e-03 2.6815471998156781e-01 4.9874621338882641e-01  3.2994578221293563e-03 2.6805939497562875e-01 4.9860913409688046e-01  3.2977940821527158e-03 2.6794853533679464e-01 4.9846046483535106e-01  3.2959323884337458e-03 2.6782856866707244e-01 4.9827710284368781e-01  3.2938831219323367e-03 2.6770085803674470e-01 4.9805737324541510e-01  3.2916444796671049e-03 2.6756285152418974e-01 4.9781215913032262e-01  3.2892284741641718e-03 2.6741635469254404e-01 4.9753815490609743e-01  3.2866414124108618e-03 2.6726148766044228e-01 4.9723715846168326e-01  3.2838875332428662e-03 2.6709807786031675e-01 4.9691126211755771e-01  3.2809890671838910e-03 2.6692938455270326e-01 4.9655523592641365e-01  3.2779603359686773e-03 2.6675691135917295e-01 4.9616816894684540e-01  3.2747929713068374e-03 2.6657774315197247e-01 4.9575896317762852e-01  3.2714991130426943e-03 2.6639317381626049e-01 4.9532654637158063e-01  3.2680947883960282e-03 2.6620495904628017e-01 4.9486948444945528e-01  3.2645941623181286e-03 2.6601439496645818e-01 4.9438775526181378e-01  3.2610112675421693e-03 2.6582270442005995e-01 4.9388158014128108e-01  3.2573524848149068e-03 2.6562989934932957e-01 4.9335301562523076e-01  3.2536349202344234e-03 2.6543762163954260e-01 4.9280178426589666e-01  3.2498683153744227e-03 2.6524640857361437e-01 4.9222912575789929e-01  3.2460630398181232e-03 2.6505687630235397e-01 4.9163615543864148e-01  3.2422323946862024e-03 2.6487008097758685e-01 4.9102346754826259e-01  3.2383702872005368e-03 2.6468450169127028e-01 4.9039406303630756e-01  3.2345113420286830e-03 2.6450400185740330e-01 4.8974589120974832e-01  3.2306935841326348e-03 2.6433294320692535e-01 4.8907657654122777e-01  3.2268952872826786e-03 2.6416759286473163e-01 4.8839157706766434e-01  3.2231430238900114e-03 2.6401072131594477e-01 4.8768996990633279e-01  3.2194255859806656e-03 2.6386026230528647e-01 4.8697485513699951e-01  3.2157635938169647e-03 2.6371821844015358e-01 4.8624610733824503e-01  3.2121405443139538e-03 2.6358200483459288e-01 4.8550629066862444e-01  3.2086643531471352e-03 2.6346430075637278e-01 4.8474957526313645e-01  3.2053116552903673e-03 2.6336158437875118e-01 4.8397950654596611e-01  3.2019584169094705e-03 2.6325830471072986e-01 4.8320532773096331e-01  3.1987824339745992e-03 2.6317545828505290e-01 4.8241750933807537e-01  3.1957521023892443e-03 2.6310876706158831e-01 4.8161956790786553e-01  3.1929129056040041e-03 2.6306282099674461e-01 4.8081123845895535e-01  3.1900685423089607e-03 2.6301433004972907e-01 4.8000197109285209e-01  3.1875421327798924e-03 2.6300083691724990e-01 4.7917929929042241e-01  3.1850714952942182e-03 2.6299112062329538e-01 4.7835521054561714e-01  3.1828685414555993e-03 2.6300940997829308e-01 4.7752272232772464e-01  3.1806480736485485e-03 2.6302268040281362e-01 4.7669172128245513e-01  3.1787412041046773e-03 2.6306848695155599e-01 4.7585327755148832e-01  3.1770762607413261e-03 2.6313826211712638e-01 4.7501097909853546e-01  3.1755738589339371e-03 2.6322266387334997e-01 4.7416755697756663e-01  3.1742906548452004e-03 2.6332781303891090e-01 4.7332261215663951e-01  3.1731915355088917e-03 2.6344957075295655e-01 4.7247746350565317e-01  3.1715790614969173e-03 2.6374569831147526e-01 4.7078855059418145e-01  3.1711478867664732e-03 2.6392883223104135e-01 4.6994545179471636e-01  3.1708810074986163e-03 2.6412560232646021e-01 4.6910473319818469e-01  3.1708622990001367e-03 2.6434508842813048e-01 4.6826657877341643e-01  3.1710461440201719e-03 2.6458215345008107e-01 4.6743172835803409e-01  3.1714485674177182e-03 2.6483842488918724e-01 4.6660072803536401e-01  3.1720636989655514e-03 2.6511314359433258e-01 4.6577411468465846e-01  3.1728965693228945e-03 2.6540678217816244e-01 4.6495248282097218e-01  3.1739498187561377e-03 2.6571952877284377e-01 4.6413644256502662e-01  3.1752286466551240e-03 2.6605184981018098e-01 4.6332670635346118e-01  3.1766951450553789e-03 2.6639964627856194e-01 4.6252327911589686e-01  3.1784219664576486e-03 2.6677048581649632e-01 4.6172817871624605e-01  3.1802516429299938e-03 2.6714785070435132e-01 4.6093862707935068e-01  3.1823116068457826e-03 2.6754500026474076e-01 4.6015802468973188e-01  3.1845905540268419e-03 2.6796071574010200e-01 4.5938680094897416e-01  3.1868722865380774e-03 2.6837276958460493e-01 4.5861903955183547e-01  3.1894307395850590e-03 2.6880929805880838e-01 4.5786347584284670e-01  3.1922288131379342e-03 2.6926641187155592e-01 4.5712043807547048e-01  3.1951089380257520e-03 2.6972797585239683e-01 4.5638481694746641e-01  3.1981108703011104e-03 2.7019819972005682e-01 4.5565839289158178e-01  3.2012398566719593e-03 2.7067749939304869e-01 4.5494214711210679e-01  3.2045064169982842e-03 2.7116696232333681e-01 4.5423732404398226e-01  3.2078773085891486e-03 2.7166329226723945e-01 4.5354320066252468e-01  3.2113287649780031e-03 2.7216417751958533e-01 4.5285898734592039e-01  3.2149282064548000e-03 2.7267602235029803e-01 4.5219039788524040e-01  3.2185621860689744e-03 2.7318798007307221e-01 4.5153052558957402e-01  3.2222382806973387e-03 2.7370073539681194e-01 4.5088103461178863e-01  3.2260346175700481e-03 2.7422153323309506e-01 4.5024918532073843e-01  3.2298330816627708e-03 2.7473931007558822e-01 4.4962676356120551e-01  3.2336498566172705e-03 2.7525557564196285e-01 4.4901590527483770e-01  3.2374856609124160e-03 2.7577027348986616e-01 4.4841823180839568e-01  3.2413380092216294e-03 2.7628306134984310e-01 4.4783509490883039e-01  3.2451812224773349e-03 2.7679152253823075e-01 4.4726545523682859e-01  3.2489916348203084e-03 2.7729356193713428e-01 4.4670781201188892e-01  3.2527461986551422e-03 2.7778725005274646e-01 4.4616014913049662e-01  3.2565040177341478e-03 2.7827679734536159e-01 4.4563468521710958e-01  3.2601997144748730e-03 2.7875693138364011e-01 4.4512298880979240e-01  3.2637635951709731e-03 2.7922247142962126e-01 4.4461371476410272e-01  3.2672823352983271e-03 2.7967925084609502e-01 4.4412604345687395e-01  3.2707143962366872e-03 2.8012393850412820e-01 4.4365480958427711e-01  3.2740272026812790e-03 2.8055415451548021e-01 4.4319493543916771e-01  3.2772277566981878e-03 2.8096985486187293e-01 4.4275133690900553e-01  3.2802931464635961e-03 2.8136950080165019e-01 4.4231998091977986e-01  3.2832318432389337e-03 2.8175266494138496e-01 4.4190845482447905e-01  3.2860120744841051e-03 2.8211778482586036e-01 4.4150793145832651e-01  3.2886373002318750e-03 2.8246415979651307e-01 4.4112448101555063e-01  3.2910978030663298e-03 2.8279094664695398e-01 4.4075778011504346e-01  3.2933739402846063e-03 2.8309731402080318e-01 4.4040179842499355e-01  3.2954719883650945e-03 2.8338219623268518e-01 4.4006598802398172e-01  3.2973792171939139e-03 2.8364503497625826e-01 4.3974666579121358e-01  3.2990817750302636e-03 2.8388545549825683e-01 4.3943866174739316e-01  3.3005818349323749e-03 2.8410247263026767e-01 4.3914850629439062e-01  3.3018725235013022e-03 2.8429447048786849e-01 4.3888120195165237e-01  3.3029455038635041e-03 2.8446308432006212e-01 4.3862394244850272e-01  3.3037954650025673e-03 2.8460716689068405e-01 4.3837999267473998e-01  3.3044234534421761e-03 2.8472509533812984e-01 4.3815865342144317e-01  3.2802129084304032e-03 2.8114250177145161e-01 4.4312937710069411e-01  3.2087518193848921e-03 2.6380785027680792e-01 4.8346702476998932e-01  3.2235821715916268e-03 2.7651226326297101e-01 4.4074061901167866e-01  3.1790092129582665e-03 2.6408581347968357e-01 4.7207067384325341e-01  3.3046870913703503e-03 2.8459374832286594e-01 4.3873002817439710e-01  3.2650342822192575e-03 2.6682381011607403e-01 4.9150316541979372e-01  3.1702253712217634e-03 2.6995157806287284e-01 4.4675541267193031e-01  3.1388352803583411e-03 2.6450887989489935e-01 4.5633825511887732e-01  3.3015668121602966e-03 2.6859102230622722e-01 4.9735239720553870e-01  3.2055179582737067e-03 2.6407148390220581e-01 4.8135186559289372e-01  3.2494780184462819e-03 2.7713273703557484e-01 4.4746119888310598e-01  3.2470373190222283e-03 2.6534825226422848e-01 4.9086893332233267e-01  3.2278637402528899e-03 2.6503671426113845e-01 4.8544217947814683e-01  3.2280466603884727e-03 2.7420800641505672e-01 4.5097909685420923e-01  3.1770033490203364e-03 2.6304025589807151e-01 4.7533197630916230e-01  3.2501498887605499e-03 2.7945253539375042e-01 4.3898787811813111e-01  3.2716504916824470e-03 2.6660974665130843e-01 4.9456673506003074e-01  3.2912154168822736e-03 2.6772917238888133e-01 4.9704980622482497e-01  3.2763854827641639e-03 2.8219206857550977e-01 4.3787244733825992e-01  3.2048209915966921e-03 2.7082482713552114e-01 4.5561228581825841e-01  3.1560785432470837e-03 2.6251586128351317e-01 4.6999667839103998e-01  3.1871531626734371e-03 2.6781204156534849e-01 4.6081311886045834e-01  3.2883921035179488e-03 2.8339945497895719e-01 4.3753355122079562e-01  3.3016578865865177e-03 2.6841051187461423e-01 4.9805512494003246e-01  3.1437239040842469e-03 2.6274850132318284e-01 4.6476903980221651e-01  3.1806752319580348e-03 2.6617269814513822e-01 4.6474952320434759e-01  3.2991934659089605e-03 2.8438323589381648e-01 4.3761086117427356e-01  3.2951462441156982e-03 2.8312226661950546e-01 4.4091419104468160e-01  3.1919201981693238e-03 2.6354337644088066e-01 4.7862383057332242e-01  3.2850210028058427e-03 2.6780824540546921e-01 4.9464498980545984e-01  3.1520183034936229e-03 2.6726931747331828e-01 4.5050376408987697e-01  3.1982116724261016e-03 2.7354364510290591e-01 4.4302414025445674e-01  3.3049622360281877e-03 2.6865165101617999e-01 4.9827794619592058e-01  3.1386315255683664e-03 2.6319208092553270e-01 4.6128320876803031e-01  3.1773342021118320e-03 2.6501637042282067e-01 4.6795974767998338e-01  3.3037650046434169e-03 2.8472562048254868e-01 4.3791860061202892e-01  3.2445234560438568e-03 2.6580509134375535e-01 4.8828991185003229e-01  3.2250104483694583e-03 2.6436287111139961e-01 4.8699427033574699e-01  3.3015234950834111e-03 2.8404489177733272e-01 4.3968108387183608e-01  3.2675676600986592e-03 2.7947700655576679e-01 4.4496884790036090e-01  3.1842458872902392e-03 2.6372171600470323e-01 4.7527686559970178e-01  3.2947497463576849e-03 2.6827855787095428e-01 4.9620044255627627e-01  3.1439920588577025e-03 2.6580401186293817e-01 4.5323681901614776e-01  3.2624167095772730e-03 2.8071512105595942e-01 4.3853538630751659e-01  3.1612192942618829e-03 2.6862025965794983e-01 4.4862481090561601e-01  3.3043199441234101e-03 2.6866099127397125e-01 4.9802555680638677e-01  3.2756290171689090e-03 2.6733945726831060e-01 4.9319434426816178e-01  3.1388187034182649e-03 2.6386455820080845e-01 4.5879047276048890e-01  3.1929602089339607e-03 2.6358164199877521e-01 4.7884199285327650e-01  3.2884668191582381e-03 2.8221869488667362e-01 4.4197174436243519e-01  3.2111844674258027e-03 2.7503711393298980e-01 4.4194887303864377e-01  3.2182361761094866e-03 2.7277601795215284e-01 4.5294528322205263e-01  3.2808110211036529e-03 2.6713072197939491e-01 4.9574301959443956e-01  3.1961324045726024e-03 2.6945452043241636e-01 4.5774723784767568e-01  3.1995956807616618e-03 2.6361765602072240e-01 4.8101019001552398e-01  3.1853518294102131e-03 2.7193190355690039e-01 4.4458937788676733e-01  3.2389542814