<?xml version="1.0"?>
<VTKFile type="UnstructuredGrid"  version="0.1"  >
<UnstructuredGrid>
<Piece  NumberOfPoints="4940" NumberOfCells="9650">
<Points>
<DataArray  type="Float64"  NumberOfComponents="3"  format="ascii">500 250 0  0 250 0  250 500 0  250 0 0  256.8885856082646 499.9050767557906 0  263.7719401218049 499.6203791065173 0  270.6448364229772 499.1461232471188 0  277.5020553257866 498.4826693209355 0  284.3383895508592 497.6305211460281 0  291.1486476865662 496.5903258312597 0  297.9276581259182 495.3628732847843 0  304.6702729675493 493.9490956196674 0  311.3713719748657 492.3500664368026 0  318.0258664141369 490.5670000199653 0  324.6287029687753 488.6012504015818 0  331.1748675330201 486.4543103455647 0  337.6593890460416 484.1278102064655 0  344.0773432429536 481.6235166997244 0  350.4238564271474 478.9433315480048 0  356.694109139292 476.0892900492477 0  362.88333985546 473.0635595140469 0  368.9868485575419 469.8684376402048 0  375.0000003153078 466.5063507640667 0  380.9182288257928 462.9798520074548 0  386.7370398729688 459.2916193419558 0  392.4520147244077 455.444453565817 0  398.0588135356345 451.4412761437442 0  403.5531785622926 447.285127045646 0  408.9309374414144 442.9791624087773 0  414.1880064015299 438.5266521049243 0  419.3203932989752 433.9309773069245 0  424.324200661095 429.1956279150535 0  429.1956286596235 424.3241998957182 0  433.9309780058756 419.3203925397119 0  438.5266527445345 414.1880056671062 0  442.9791630130591 408.9309367076756 0  447.2851276060475 403.5531778422888 0  451.4412766621026 398.0588128303826 0  455.4444540361634 392.4520140460735 0  459.2916197786263 386.7370392045948 0  462.9798524073514 380.9182281752347 0  466.5063511234856 374.9999996927758 0  469.8684379657123 368.9868479560565 0  473.0635598144817 362.8833392617846 0  476.0892903190255 356.6941085676214 0  478.9433317963513 350.4238558609745 0  481.6235169154735 344.0773427117675 0  484.12781039012 337.6593885555221 0  486.4543105028062 331.1748670749914 0  488.601250531677 324.6287025528375 0  490.5670001317469 318.0258660188321 0  492.3500665291326 311.3713716102628 0  493.949095695951 304.6702726271575 0  495.3628733416623 297.9276578347343 0  496.5903258712341 291.1486474470129 0  497.6305211749058 284.3383893426084 0  498.4826693388848 277.502055163614 0  499.1461232580606 270.6448362909296 0  499.6203791109319 263.7719400417897 0  499.9050767571306 256.8885855596534 0  499.9050767559877 243.1114143988867 0  499.6203791069493 236.2280598860241 0  499.1461232485393 229.3551635941651 0  498.4826693235677 222.4979446979962 0  497.6305211491849 215.6616104719064 0  496.5903258357701 208.8513523404629 0  495.3628732906988 202.0723419043604 0  493.9490956264813 195.3297270628552 0  492.3500664487791 188.6286280724281 0  490.5670000344809 181.9741336371959 0  488.6012504175981 175.3712970824318 0  486.4543103623226 168.8251325157939 0  484.1278102222298 162.3406109960628 0  481.6235167152198 155.9226567951971 0  478.9433315621651 149.5761436051346 0  476.0892900516498 143.3058908657982 0  473.063559513628 137.1166601437124 0  469.8684376406648 131.0131514433083 0  466.5063507675389 124.9999996907064 0  462.9798520124137 119.0817711822745 0  459.2916193464549 113.2629601339176 0  455.4444535642773 107.5479852733717 0  451.4412761528674 101.9411864767781 0  447.2851270583545 96.44682145403524 0  442.9791624165781 91.06906256805769 0  438.5266521117469 85.81199360630404 0  433.9309773156125 80.67960671046254 0  429.1956279150353 75.67579933888632 0  424.3241998888952 70.80437133373906 0  419.3203925223282 66.06902197812161 0  414.1880056411937 61.47334723289828 0  408.9309366751728 57.0208369601728 0  403.5531778009394 52.71487236176898 0  398.058812796452 48.55872331295853 0  392.4520140187753 44.55554594490843 0  386.7370391799677 40.70838020528396 0  380.9182281475119 37.02014757560744 0  374.9999996718656 33.49364886444181 0  368.9868479340393 30.13156202237255 0  362.8833392380029 26.93644017348339 0  356.6941085456942 23.91070967062674 0  350.4238558420009 21.0566681953261 0  344.0773426899492 18.37648307566465 0  337.6593885328982 15.87218960140942 0  331.1748670549786 13.54568949032341 0  324.6287025315056 11.39874946165088 0  318.0258660010876 9.432999863235466 0  311.3713716017894 7.649933468721599 0  304.6702726190621 6.050904302234756 0  297.9276578269805 4.637126656823085 0  291.148647441857 3.409674127905504 0  284.3383893425031 2.369478825079682 0  277.502055159398 1.517330660648639 0  270.6448362875833 0.853876741662134 0  263.7719400401456 0.3796208889774277 0  256.8885855592052 0.09492324285704967 0  243.1114143979462 0.09492324403817065 0  236.2280598850882 0.3796208931023841 0  229.3551635938215 0.8538767514891958 0  222.4979446968584 1.517330676558146 0  215.6616104703111 2.369478851036291 0  208.8513523382973 3.409674164591252 0  202.0723419066374 4.637126708856528 0  195.3297270659513 6.050904372824903 0  188.628628074828 7.649933550613184 0  181.9741336377093 9.432999965373938 0  175.3712970793675 11.39874958336037 0  168.8251325057572 13.54568964112298 0  162.340610986655 15.87218978129263 0  155.9226567874317 18.37648328793418 0  149.576143602509 21.05666843898663 0  143.3058908718157 23.91070994551046 0  137.1166601505524 26.93644048291054 0  131.0131514451933 30.13156235831508 0  124.9999996848412 33.49364923584736 0  119.0817711715717 37.0201479941652 0  113.2629601211624 40.70838066187849 0  107.5479852622251 44.55554644345162 0  101.9411864693332 48.55872385260452 0  96.44682143286516 52.71487295812284 0  91.06906254351222 57.02083760363669 0  85.81199358272519 61.4733479087879 0  80.67960667988106 66.06902271253972 0  75.67579930062769 70.80437212218331 0  70.80437129287643 75.67580015310926 0  66.06902193673014 80.67960752263491 0  61.47334718684866 85.81199441168215 0  57.02083692524275 91.0690633672404 0  52.71487232786438 96.44682224262129 0  48.55872328070024 101.941187247437 0  44.55554591578033 107.5479860232332 0  40.7083801742321 113.2629608675606 0  37.02014754791168 119.0817718975441 0  33.49364883372994 125.000000381329 0  30.13156199866361 131.0131521097709 0  26.9364401549829 137.1166607985551 0  23.91070965524918 143.3058914868915 0  21.05666818346614 149.576144185037 0  18.37648306853811 155.9226573275967 0  15.8721895918909 162.3406114925245 0  13.54568948170046 168.8251329701392 0  11.39874945301878 175.3712974960928 0  9.432999857087736 181.9741340206533 0  7.649933466342702 188.6286284076045 0  6.050904301250966 195.3297273853278 0  4.637126656808988 202.0723421730917 0  3.409674127767772 208.8513525589684 0  2.369478824521138 215.6616106615248 0  1.517330660909465 222.4979448382452 0  0.8538767414496533 229.355163714981 0  0.3796208887135322 236.2280599646376 0  0.09492324266324204 243.1114144478261 0  0.0949232442452228 256.8885856095658 0  0.3796208935834784 263.7719401236316 0  0.8538767530323526 270.6448364248016 0  1.517330679476544 277.5020553295092 0  2.369478854618649 284.3383895555228 0  3.409674170191892 291.1486476952655 0  4.6371267162381 297.9276581311522 0  6.050904381420935 304.6702729724059 0  7.649933562385399 311.3713719716595 0  9.43299997979841 318.0258664133013 0  11.3987495994252 324.6287029719946 0  13.54568965885832 331.174867545904 0  15.87218979367188 337.6593890464085 0  18.37648329843151 344.0773432384132 0  21.05666844777872 350.423856417535 0  23.91070995156048 356.6941091410045 0  26.93644048988043 362.8833398632205 0  30.13156235982007 368.9868485575877 0  33.49364924138357 375.0000003247478 0  37.0201480006036 380.9182288389023 0  40.70838066758398 386.7370398875706 0  44.55554644477201 392.4520147396792 0  48.55872386086904 398.0588135419111 0  52.71487295981296 403.5531785693063 0  57.02083760525949 408.9309374584583 0  61.47334790862246 414.1880064170849 0  66.06902271205095 419.320393319588 0  70.80437211216579 424.3242006890749 0  75.67580013809859 429.195628692521 0  80.6796075127923 433.930978054209 0  85.81199439754931 438.5266528008431 0  91.06906334717917 442.9791630582355 0  96.44682221438322 447.2851276501571 0  101.9411872243843 451.441276702356 0  107.5479859945825 455.4444540643537 0  113.2629608446994 459.2916198108319 0  119.0817718768376 462.9798524393601 0  125.0000003647644 466.5063511567065 0  131.0131521012763 469.8684379967393 0  137.1166607840049 473.0635598376539 0  143.3058914748804 476.0892903390826 0  149.5761441732679 478.9433318113714 0  155.9226573130112 481.6235169255377 0  162.3406114779862 484.1278104026658 0  168.8251329570439 486.4543105138039 0  175.3712974805475 488.601250542119 0  181.9741340135204 490.5670001408953 0  188.6286284005059 492.3500665318597 0  195.3297273788229 493.9490956972913 0  202.0723421640089 495.3628733414168 0  208.8513525529672 496.5903258712308 0  215.6616106544547 497.6305211744985 0  222.4979448327038 498.4826693384772 0  229.3551637102845 499.1461232581612 0  236.2280599621369 499.6203791111485 0  243.1114144470173 499.9050767573145 0  155.2373389820306 474.8197567317462 0  25.36256300907667 153.9152755065208 0  432.3709625126712 412.6214396304305 0  6.013151705810699 246.637913163471 0  246.6379131630491 493.986848294322 0  338.6995838441862 22.68244767887072 0  477.3175523131281 338.6995838660569 0  493.9868482700757 246.6379131399102 0  246.6201155078769 6.218451882810491 0  417.6179310263282 72.7156044707053 0  102.2232990934413 445.0100869616822 0  63.66330858966404 92.20354579482142 0  391.3105220491464 50.73522820883105 0  72.79295043967942 418.0702734974704 0  448.290574428537 108.25674339002 0  402.4604651193511 440.7462829841712 0  97.55317348421397 59.11376320116034 0  136.7376477664901 33.58246472647134 0  363.3288394375288 465.6947312928271 0  44.0678766556007 381.0860953771871 0  469.6905266180034 142.3890690100806 0  22.68244791668644 338.6995843487432 0  338.699584349159 477.317552078365 0  173.389488083762 18.6681884918202 0  483.4809734778481 179.7121987795732 0  13.50237455842738 306.4709525540879 0  305.9825168523021 487.24416992
[...]
<PointData  Vectors="f_12"> 
<DataArray  type="Float64"  Name="f_12"  NumberOfComponents="3" format="ascii">5.5446259737736314e-01 2.5833443967775005e-01 6.7189316657077502e-01  5.2637303575240568e-01 1.8459380925059957e-01 6.0899358962701466e-01  5.6516816099601674e-01 3.0526627850915750e-01 6.7681536519790242e-01  5.4586098349392076e-01 2.3372890886306283e-01 6.5758669773392986e-01  5.6530432994093927e-01 3.0598598390155224e-01 6.7676663906185408e-01  5.6542870176845539e-01 3.0664705820042826e-01 6.7671887830335664e-01  5.6554618419700442e-01 3.0727473766590163e-01 6.7667096944154070e-01  5.6565338750436855e-01 3.0785022604814949e-01 6.7662486670463773e-01  5.6575189279878002e-01 3.0838144897116826e-01 6.7658043434265192e-01  5.6584166064402863e-01 3.0886754215311291e-01 6.7653819807071858e-01  5.6592283620309014e-01 3.0930876752049469e-01 6.7649858222297943e-01  5.6599582657414649e-01 3.0970689098783993e-01 6.7646177004419128e-01  5.6606031749859664e-01 3.1005977707368187e-01 6.7642827364942149e-01  5.6611604421526962e-01 3.1036557368535617e-01 6.7639861227709508e-01  5.6616034509685365e-01 3.1060930402093484e-01 6.7637449836197316e-01  5.6620233288415867e-01 3.1084073001373946e-01 6.7635126734459583e-01  5.6622771863652921e-01 3.1098105475453164e-01 6.7633692244835308e-01  5.6624959879606174e-01 3.1110215122528440e-01 6.7632443003175802e-01  5.6626181130959674e-01 3.1116998160771753e-01 6.7631729176766975e-01  5.6626594651176110e-01 3.1119320990833710e-01 6.7631470406920335e-01  5.6626241587931081e-01 3.1117408177270350e-01 6.7631643361042526e-01  5.6624726698201389e-01 3.1109086677817804e-01 6.7632469234584203e-01  5.6622294508457283e-01 3.1095711827133088e-01 6.7633803214632426e-01  5.6619295459032326e-01 3.1079227787777292e-01 6.7635434990752508e-01  5.6615349408441207e-01 3.1057558880991804e-01 6.7637563579110438e-01  5.6610275431548096e-01 3.1029747406300529e-01 6.7640255398218763e-01  5.6604025145133408e-01 3.0995562303378188e-01 6.7643505648498614e-01  5.6597179776701323e-01 3.0958224177858862e-01 6.7646975043678004e-01  5.6589364463805880e-01 3.0915730258654511e-01 6.7650818448817751e-01  5.6580173850889814e-01 3.0865936500325025e-01 6.7655183659369733e-01  5.6570211912803992e-01 3.0812184171673973e-01 6.7659724572993363e-01  5.6559065734104585e-01 3.0752318807897655e-01 6.7664563324425797e-01  5.6546790026626548e-01 3.0686705083060056e-01 6.7669617913452473e-01  5.6533552543667687e-01 3.0616329500028600e-01 6.7674734655798796e-01  5.6518753557468260e-01 3.0538118017824128e-01 6.7680047433188273e-01  5.6502822506257455e-01 3.0454451927959603e-01 6.7685309344160827e-01  5.6485917521005991e-01 3.0366264043640717e-01 6.7690366272682156e-01  5.6467362325823878e-01 3.0270171180599076e-01 6.7695300937229985e-01  5.6447078830849973e-01 3.0165951278497055e-01 6.7699976707277787e-01  5.6425610837915008e-01 3.0056549045487857e-01 6.7704124113515252e-01  5.6402921774960901e-01 2.9941923992487274e-01 6.7707619891962123e-01  5.6378337353916264e-01 2.9818861945476521e-01 6.7710398782519832e-01  5.6351826870091770e-01 2.9687430760222644e-01 6.7712255413714795e-01  5.6323728029867592e-01 2.9549571516146411e-01 6.7712941407943594e-01  5.6293616540179736e-01 2.9403433641001947e-01 6.7712242097085096e-01  5.6261551491738748e-01 2.9249557609028981e-01 6.7709921267986850e-01  5.6227476429413947e-01 2.9087975640769875e-01 6.7705695518357811e-01  5.6191344869739301e-01 2.8918758894430185e-01 6.7699312945660262e-01  5.6152363251284554e-01 2.8738606201022121e-01 6.7690205201550191e-01  5.6111209562879771e-01 2.8550952927321932e-01 6.7678264134867638e-01  5.6067416605501419e-01 2.8354167797700203e-01 6.7662897241729569e-01  5.6020948257735514e-01 2.8148392120584120e-01 6.7643756220198437e-01  5.5971607901783649e-01 2.7933310160508551e-01 6.7620277851586796e-01  5.5918891724092590e-01 2.7707212443422796e-01 6.7591715405558495e-01  5.5863023346020901e-01 2.7471637331917736e-01 6.7557626219424882e-01  5.5803884934288761e-01 2.7226672705979532e-01 6.7517396106179561e-01  5.5740869656211756e-01 2.6970401584451997e-01 6.7469946897065913e-01  5.5674053302623072e-01 2.6703836133339282e-01 6.7414709282296759e-01  5.5603410706083289e-01 2.6427518621231966e-01 6.7350799259012317e-01  5.5529269608652054e-01 2.6142943245430045e-01 6.7278712763866866e-01  5.5362666571652219e-01 2.5526714070562284e-01 6.7093500662443362e-01  5.5272919553654321e-01 2.5205854675352551e-01 6.6982744861698451e-01  5.5177848669993657e-01 2.4874381750977964e-01 6.6857062246886645e-01  5.5076434811508146e-01 2.4529743728182080e-01 6.6713565478613401e-01  5.4969055989362281e-01 2.4174799184206461e-01 6.6551829593037470e-01  5.4855514776484504e-01 2.3809775815409306e-01 6.6369807407498627e-01  5.4734978587240357e-01 2.3434000416127268e-01 6.6164689570408974e-01  5.4607357274599255e-01 2.3048383128330277e-01 6.5934509849998546e-01  5.4472533053999006e-01 2.2654288852613491e-01 6.5677322730312482e-01  5.4330188855632244e-01 2.2252547510990567e-01 6.5390627589246308e-01  5.4179106989787051e-01 2.1841658357682134e-01 6.5069473691235702e-01  5.4020561852078641e-01 2.1427118069021878e-01 6.4714712249069550e-01  5.3853192348879231e-01 2.1007173203423679e-01 6.4320840111062694e-01  5.3676887997634093e-01 2.0584117181769224e-01 6.3884862903925843e-01  5.3491809934611567e-01 2.0160596408150652e-01 6.3404447066986591e-01  5.3298165531366781e-01 1.9739617357646225e-01 6.2877523861745654e-01  5.3096143585915057e-01 1.9323879703918884e-01 6.2301709583401910e-01  5.2885909890056282e-01 1.8916422207108941e-01 6.1674741204869388e-01  5.2667758108114937e-01 1.8520328915720069e-01 6.0994655995106228e-01  5.2442799974846344e-01 1.8140049062585475e-01 6.0262230450913745e-01  5.2213039011424833e-01 1.7780943051556652e-01 5.9481982230003549e-01  5.1977068447098029e-01 1.7444423700135142e-01 5.8646117082271787e-01  5.1737750171462815e-01 1.7136169993080658e-01 5.7763258976484599e-01  5.1496669181104338e-01 1.6860222242932354e-01 5.6837796980567201e-01  5.1255212441803966e-01 1.6620541177492845e-01 5.5873626743633287e-01  5.1015384580255585e-01 1.6420934372937307e-01 5.4878124226276703e-01  5.0778887398671446e-01 1.6264467235021113e-01 5.3858134472891750e-01  5.0547599528309617e-01 1.6154067759354221e-01 5.2822012479334790e-01  5.0322859580840551e-01 1.6091477683474611e-01 5.1776130143443544e-01  5.0106399408961599e-01 1.6079496734692542e-01 5.0729119255873278e-01  4.9899682908183085e-01 1.6119238608967551e-01 4.9689037634690403e-01  4.9704050160068564e-01 1.6211838523978914e-01 4.8663714852517642e-01  4.9521460438359927e-01 1.6357848704092071e-01 4.7664739538878681e-01  4.9351153887246885e-01 1.6559259719585886e-01 4.6688873616215065e-01  4.9194728058292703e-01 1.6815698207438834e-01 4.5746410533959697e-01  4.9055550000383080e-01 1.7120912126454468e-01 4.4859896006497874e-01  4.8932709745999037e-01 1.7472798778795154e-01 4.4027454687787099e-01  4.8826261438342239e-01 1.7866870436041229e-01 4.3253445292657888e-01  4.8739230106842263e-01 1.8277818210048147e-01 4.2569031119608436e-01  4.8670256895179698e-01 1.8692388646328220e-01 4.1975780117285116e-01  4.8616766254911903e-01 1.9100457963290740e-01 4.1466728242721390e-01  4.8580990674313190e-01 1.9438389176361026e-01 4.1089722166095549e-01  4.8559390461619945e-01 1.9682798864847292e-01 4.0839664759205907e-01  4.8552486693033675e-01 1.9784369614296538e-01 4.0747348690264090e-01  4.8560951587974582e-01 1.9712457856911070e-01 4.0833813844442063e-01  4.8589923746721181e-01 1.9441225942673043e-01 4.1140737241298431e-01  4.8648809607046106e-01 1.8983308075899305e-01 4.1710389798718173e-01  4.8752951189426291e-01 1.8379359885514776e-01 4.2599426521597877e-01  4.8926773641003646e-01 1.7692033900644399e-01 4.3897051492207900e-01  4.9196326539481799e-01 1.7030580027123524e-01 4.5666524774390604e-01  4.9587376175200548e-01 1.6523779446496836e-01 4.7947893081084708e-01  5.0122391178885040e-01 1.6318918855148126e-01 5.0731506428611228e-01  5.0810453006452028e-01 1.6538350642799052e-01 5.3926115937165298e-01  5.1649138695730745e-01 1.7309708931986731e-01 5.7361288568270952e-01  5.2599060320341329e-01 1.8710675154697676e-01 6.0699442623769573e-01  5.3606406885784252e-01 2.0766826997790228e-01 6.3612777303581725e-01  5.5438424029994304e-01 2.6293724922463085e-01 6.6976230052000107e-01  5.6209372099424226e-01 2.9390127169916008e-01 6.7546936108843125e-01  5.6741606283557267e-01 3.2242897701268541e-01 6.7282739005226744e-01  5.7113523058914506e-01 3.4664829765696481e-01 6.6748879114575543e-01  5.7352037202541295e-01 3.6570204436769227e-01 6.6111700853143540e-01  5.7486125186641790e-01 3.7869994694704273e-01 6.5574846636255757e-01  5.7549991851643123e-01 3.8585982642410577e-01 6.5244180182235423e-01  5.7559888708593143e-01 3.8703996898923443e-01 6.5187700747695676e-01  5.7521136255947225e-01 3.8248482593909061e-01 6.5404026866289167e-01  5.7425482956797302e-01 3.7240801293263853e-01 6.5847928498105912e-01  5.7247035631040488e-01 3.5659486907967580e-01 6.6445044902731609e-01  5.6959146019982676e-01 3.3574821770614116e-01 6.7035583762575179e-01  5.6538565200797597e-01 3.1086907895813132e-01 6.7435450125246732e-01  5.5974045223242486e-01 2.8354052059904472e-01 6.7428030587492249e-01  5.5261825288283173e-01 2.5538402265233351e-01 6.6820963223535601e-01  5.4435853707677639e-01 2.2876656558094094e-01 6.5494629104777224e-01  5.3551776651774030e-01 2.0582030623991163e-01 6.3483599409971758e-01  5.2672878298591741e-01 1.8776807342352636e-01 6.0948040108228085e-01  5.1853339614959115e-01 1.7495811920550805e-01 5.8140337212260951e-01  5.1131980833837132e-01 1.6700771959618135e-01 5.5317249662929024e-01  5.0526468894164400e-01 1.6314179451968672e-01 5.2675313289960668e-01  5.0042442788973218e-01 1.6233238718923620e-01 5.0363922002060668e-01  4.9674660022312839e-01 1.6356340895898655e-01 4.8461698990793439e-01  4.9405021162639923e-01 1.6590628392569376e-01 4.6964290594547520e-01  4.9213931275857542e-01 1.6860061439277382e-01 4.5833944333444460e-01  4.9085522504098106e-01 1.7106598843641704e-01 4.5032376242633854e-01  4.9005013294639727e-01 1.7294768652126585e-01 4.4508615607890378e-01  4.8961912833121446e-01 1.7405599433644145e-01 4.4221405571182476e-01  4.8947658842639574e-01 1.7438820183873963e-01 4.4127411910518455e-01  4.8956769216219626e-01 1.7402545564989355e-01 4.4193780787712206e-01  4.8985277203128408e-01 1.7311552636000155e-01 4.4391443156159810e-01  4.9031122619748213e-01 1.7180404800915067e-01 4.4701098854160765e-01  4.9091635797173394e-01 1.7026870022644955e-01 4.5098393497938816e-01  4.9165734559152552e-01 1.6862639989222755e-01 4.5570697564429402e-01  4.9249237712798072e-01 1.6706123421677477e-01 4.6085492333059991e-01  4.9342901876294937e-01 1.6558544638238629e-01 4.6645505160946160e-01  4.9445473022763237e-01 1.6425883822751983e-01 4.7240187101881564e-01  4.9556535934558749e-01 1.6311118928317442e-01 4.7865117478415881e-01  4.9675820690885641e-01 1.6216205014987731e-01 4.8517048709176475e-01  4.9802910533160971e-01 1.6143224943739976e-01 4.9192027319500670e-01  4.9936241312991186e-01 1.6093684895310856e-01 4.9880704804330162e-01  5.0075978386592734e-01 1.6067683328320367e-01 5.0583055511586150e-01  5.0223657876329364e-01 1.6066026311073880e-01 5.1305407570903161e-01  5.0376962513448065e-01 1.6088907041659503e-01 5.2035405609865115e-01  5.0535746812692062e-01 1.6136791288350424e-01 5.2771373379050013e-01  5.0700116986871302e-01 1.6209702843910087e-01 5.3512985869570351e-01  5.0870187274298584e-01 1.6308148967578223e-01 5.4259706124361640e-01  5.1042594940504127e-01 1.6430611584724375e-01 5.4995757996736128e-01  5.1219386617814044e-01 1.6577966824650617e-01 5.5729926537074270e-01  5.1397664222424300e-01 1.6747261361801474e-01 5.6449405582788625e-01  5.1578488226361707e-01 1.6940476361296766e-01 5.7158282211939293e-01  5.1759281756053477e-01 1.7153236190833476e-01 5.7846401109067958e-01  5.1938992144267748e-01 1.7384330160122663e-01 5.8510198491039611e-01  5.2117418267203786e-01 1.7632472626672582e-01 5.9149343416159827e-01  5.2293872351345472e-01 1.7895950683505829e-01 5.9762096007334820e-01  5.2467239116569264e-01 1.8171997160608655e-01 6.0345304736121119e-01  5.2803395300399170e-01 1.8755852539277659e-01 6.1423061434682358e-01  5.2964735031365784e-01 1.9058888047349740e-01 6.1915094388289771e-01  5.3121741291696500e-01 1.9368181127188144e-01 6.2378192209770811e-01  5.3273707645773949e-01 1.9681097962855704e-01 6.2811237755387517e-01  5.3420587197192537e-01 1.9996433260517854e-01 6.3215586048404548e-01  5.3562379251343994e-01 2.0313048943738896e-01 6.3592431370584690e-01  5.3698997068982801e-01 2.0629673134225798e-01 6.3942814313447383e-01  5.3830500108240131e-01 2.0945340966576517e-01 6.4268059154158874e-01  5.3956971566213086e-01 2.1259245178841812e-01 6.4569590266091537e-01  5.4078479557647252e-01 2.1570574423083472e-01 6.4848635210264516e-01  5.4195078342255232e-01 2.1878563789729416e-01 6.5106476650848732e-01  5.4306916160846930e-01 2.2182564716384748e-01 6.5344384032971259e-01  5.4414439438943851e-01 2.2483085798473695e-01 6.5564305248414922e-01  5.4517757859648064e-01 2.2779599407135664e-01 6.5767354998931271e-01  5.4616418766332309e-01 2.3070032235486046e-01 6.5953483702364601e-01  5.4711647511230643e-01 2.3357393342212393e-01 6.6125764837096512e-01  5.4802983901149094e-01 2.3639574440260405e-01 6.6284125539041716e-01  5.4889976092071913e-01 2.3914512735546101e-01 6.6428387370693853e-01  5.4973582088443051e-01 2.4184659012227525e-01 6.6561075703486972e-01  5.5053860808001764e-01 2.4449526807246322e-01 6.6682686265234958e-01  5.5130886556499736e-01 2.4708981875033192e-01 6.6793998376000296e-01  5.5204685628876937e-01 2.4962553192198891e-01 6.6895563504793321e-01  5.5275592973738763e-01 2.5210904257963918e-01 6.6988353286433422e-01  5.5343677486488485e-01 2.5453881879725748e-01 6.7072932380883044e-01  5.5408793901766229e-01 2.5690498507496023e-01 6.7149578135341581e-01  5.5471258768747733e-01 2.5921521134677000e-01 6.7219092193888019e-01  5.5531464345377191e-01 2.6147976475659074e-01 6.7282356879351535e-01  5.5588813686931693e-01 2.6367320606461736e-01 6.7339034663342712e-01  5.5644079308561423e-01 2.6582139804151839e-01 6.7390320402032255e-01  5.5697106007424579e-01 2.6791492241807247e-01 6.7436354019050571e-01  5.5747924716237407e-01 2.6995202085170411e-01 6.7477510660147999e-01  5.5796666118359384e-01 2.7193511343923255e-01 6.7514171922668853e-01  5.5843406602833134e-01 2.7386435443230389e-01 6.7546692758407512e-01  5.5888295374787855e-01 2.7574341572318639e-01 6.7575430207012921e-01  5.5931517969151678e-01 2.7757769164861656e-01 6.7600743848441480e-01  5.5972681655199286e-01 2.7934783735640778e-01 6.7622654476074751e-01  5.6012017553971793e-01 2.8106135647697561e-01 6.7641538713341676e-01  5.6050166334888929e-01 2.8274422746477113e-01 6.7657889023963347e-01  5.6086499604914930e-01 2.8436667100592217e-01 6.7671631885784223e-01  5.6121111692848080e-01 2.8593083695170829e-01 6.7683015658440171e-01  5.6154384260929435e-01 2.8745182566656752e-01 6.7692361100890941e-01  5.6186190531426250e-01 2.8892204965772061e-01 6.7699791456282099e-01  5.6216713438460575e-01 2.9034848925549572e-01 6.7705522258737716e-01  5.6245675981508170e-01 2.9171611838815670e-01 6.7709651763223266e-01  5.6273473163426713e-01 2.9304228482874445e-01 6.7712406697826866e-01  5.6299931966571792e-01 2.9431709532267081e-01 6.7713894683781894e-01  5.6325238776288689e-01 2.9554803453204775e-01 6.7714263011561493e-01  5.6349483318034865e-01 2.9673811825559010e-01 6.7713641322986640e-01  5.6372321671036729e-01 2.9786936276433423e-01 6.7712167241098853e-01  5.6393964672170138e-01 2.9895062959734808e-01 6.7709937180074153e-01  5.6414753754221791e-01 2.9999769882641508e-01 6.7707043924036348e-01  5.6434315506338872e-01 3.0099080490660257e-01 6.7703623296865800e-01  5.6452737581517287e-01 3.0193318714721723e-01 6.7699780535094378e-01  5.6470195582581062e-01 3.0283269581280781e-01 6.7695561351855560e-01  5.6486714476267919e-01 3.0368961382366327e-01 6.7691066096363506e-01  5.6502121368147062e-01 3.0449414694538540e-01 6.7686402278533320e-01  5.6199342011972708e-01 2.8953496311931642e-01 6.7702429579748602e-01  5.0116540954621402e-01 1.6065254038364546e-01 5.0783348337515111e-01  5.6522546558952969e-01 3.0558096091657477e-01 6.7678754324738877e-01  5.2547741233906931e-01 1.8306212300406796e-01 6.0609726085962468e-01  5.6506764264739184e-01 3.0473759792254984e-01 6.7684920344076671e-01  4.8542284324918550e-01 1.9967902280531483e-01 4.0591676260380394e-01  5.6205737394910482e-01 2.8985937111963311e-01 6.7702088154149975e-01  5.5401294321860395e-01 2.5666929428786689e-01 6.7139249396861245e-01  5.5031960405016134e-01 2.4763458225699375e-01 6.6534003678518117e-01  5.0201827871729887e-01 1.6080031049204696e-01 5.1194959436380316e-01  5.5862015136440624e-01 2.7464054582657788e-01 6.7558884102634587e-01  4.8982029943868610e-01 1.7327870628981970e-01 4.4366000224452268e-01  4.9242083967563183e-01 1.6731764693367593e-01 4.6036370917764685e-01  5.5559330330377710e-01 2.6254140419609567e-01 6.7310333784589327e-01  5.1846714153807960e-01 1.7272694576568329e-01 5.8169657515911066e-01  5.6590968182612744e-01 3.0924422626601888e-01 6.7650059421557507e-01  4.9263378153959003e-01 1.6805699262017687e-01 4.6122330984904886e-01  5.3058696311010223e-01 1.9526037316300257e-01 6.2121091978658027e-01  5.6622597876596759e-01 3.1097310595020305e-01 6.7633692412796942e-01  5.5094488373089567e-01 2.4585832057902529e-01 6.6741995915437002e-01  5.3187464506621263e-01 1.9509164575990390e-01 6.2565101070111440e-01  5.4462606462086827e-01 2.2620220367976118e-01 6.5660240236147993e-01  5.6621348208681632e-01 3.1090273133129820e-01 6.7634480188618729e-01  5.7076902287362130e-01 3.4374111980227640e-01 6.6841241581293565e-01  5.4233345824066315e-01 2.1987485898420492e-01 6.5186748223747304e-01  5.3888912451292792e-01 2.1089214053998720e-01 6.4408654059239479e-01  5.6599340698077050e-01 3.0969382774792376e-01 6.7646298939940430e-01  5.6358662110075053e-01 2.9719148661465855e-01 6.7713178499478854e-01  5.1125260271824891e-01 1.6497351220544695e-01 5.5341324788264501e-01  4.9011412056951825e-01 1.7487732449846494e-01 4.4456671372318540e-01  5.5941373774316483e-01 2.7803183789008284e-01 6.7604353740137024e-01  5.6415466584532248e-01 3.0005185894316977e-01 6.7705801535371180e-01  5.7528793044204118e-01 3.8335917216480675e-01 6.5363264823030354e-01  5.4782321494774144e-01 2.3580376940957054e-01 6.6246615669936004e-01  5.3342873358109089e-01 1.9828139844187559e-01 6.3003379588905051e-01  5.6567625849374470e-01 3.0797349348948649e-01 6.7661471648480764e-01  4.8771027391683341e-01 1.8127530523759111e-01 4.2819932002062500e-01  4.9487163909542686e-01 1.6381133926487204e-01 4.7476312868179799e-01  5.6441268260876964e-01 3.0134569943322403e-01 6.7702253229682940e-01  5.6064817425620461e-01 2.8339568316668046e-01 6.7663709071021616e-01  5.1861637575740815e-01 1.7282735077846220e-01 5.8226934991420698e-01  5.1105396162163819e-01 1.6773200845201025e-01 5.5182393157739928e-01  5.5710688716760448e-01 2.6849465194174199e-01 6.7445554247185391e-01  5.6608948441607654e-01 3.1022448379423873e-01 6.7640985439166823e-01  5.6085223453476063e-01 2.8433845854589740e-01 6.7669487003948015e-01  5.6969361431748011e-01 3.3681919496790452e-01 6.6998736443827211e-01  4.8596163843294593e-01 1.9468707900088350e-01 4.1161753319886424e-01  5.5120652821670502e-01 2.4678784080823937e-01 6.6777489833916837e-01  5.0877917606912426e-01 1.6325740124022758e-01 5.4289601155390810e-01  5.6284749564132608e-01 2.9358435596762122e-01 6.7713162683327699e-01  5.6472657761705991e-01 3.0297490838547153e-01 6.7693998775810549e-01  5.5376522394661643e-01 2.5572711042327650e-01 6.7112150028365947e-01  5.0206651902837562e-01 1.6256175409959597e-01 5.1161308190328014e-01  5.4849227989447680e-01 2.3784941297539167e-01 6.6361711626764097e-01  5.0610709565271450e-01 1.6168042265251414e-01 5.3111615586346506e-01  5.6334485488506103e-01 2.9602182667580978e-01 6.7712840910467742e-01  5.5719627492