<?xml version="1.0"?>
<VTKFile type="UnstructuredGrid"  version="0.1"  >
<UnstructuredGrid>
<Piece  NumberOfPoints="4940" NumberOfCells="9650">
<Points>
<DataArray  type="Float64"  NumberOfComponents="3"  format="ascii">500 250 0  0 250 0  250 500 0  250 0 0  256.8885856082646 499.9050767557906 0  263.7719401218049 499.6203791065173 0  270.6448364229772 499.1461232471188 0  277.5020553257866 498.4826693209355 0  284.3383895508592 497.6305211460281 0  291.1486476865662 496.5903258312597 0  297.9276581259182 495.3628732847843 0  304.6702729675493 493.9490956196674 0  311.3713719748657 492.3500664368026 0  318.0258664141369 490.5670000199653 0  324.6287029687753 488.6012504015818 0  331.1748675330201 486.4543103455647 0  337.6593890460416 484.1278102064655 0  344.0773432429536 481.6235166997244 0  350.4238564271474 478.9433315480048 0  356.694109139292 476.0892900492477 0  362.88333985546 473.0635595140469 0  368.9868485575419 469.8684376402048 0  375.0000003153078 466.5063507640667 0  380.9182288257928 462.9798520074548 0  386.7370398729688 459.2916193419558 0  392.4520147244077 455.444453565817 0  398.0588135356345 451.4412761437442 0  403.5531785622926 447.285127045646 0  408.9309374414144 442.9791624087773 0  414.1880064015299 438.5266521049243 0  419.3203932989752 433.9309773069245 0  424.324200661095 429.1956279150535 0  429.1956286596235 424.3241998957182 0  433.9309780058756 419.3203925397119 0  438.5266527445345 414.1880056671062 0  442.9791630130591 408.9309367076756 0  447.2851276060475 403.5531778422888 0  451.4412766621026 398.0588128303826 0  455.4444540361634 392.4520140460735 0  459.2916197786263 386.7370392045948 0  462.9798524073514 380.9182281752347 0  466.5063511234856 374.9999996927758 0  469.8684379657123 368.9868479560565 0  473.0635598144817 362.8833392617846 0  476.0892903190255 356.6941085676214 0  478.9433317963513 350.4238558609745 0  481.6235169154735 344.0773427117675 0  484.12781039012 337.6593885555221 0  486.4543105028062 331.1748670749914 0  488.601250531677 324.6287025528375 0  490.5670001317469 318.0258660188321 0  492.3500665291326 311.3713716102628 0  493.949095695951 304.6702726271575 0  495.3628733416623 297.9276578347343 0  496.5903258712341 291.1486474470129 0  497.6305211749058 284.3383893426084 0  498.4826693388848 277.502055163614 0  499.1461232580606 270.6448362909296 0  499.6203791109319 263.7719400417897 0  499.9050767571306 256.8885855596534 0  499.9050767559877 243.1114143988867 0  499.6203791069493 236.2280598860241 0  499.1461232485393 229.3551635941651 0  498.4826693235677 222.4979446979962 0  497.6305211491849 215.6616104719064 0  496.5903258357701 208.8513523404629 0  495.3628732906988 202.0723419043604 0  493.9490956264813 195.3297270628552 0  492.3500664487791 188.6286280724281 0  490.5670000344809 181.9741336371959 0  488.6012504175981 175.3712970824318 0  486.4543103623226 168.8251325157939 0  484.1278102222298 162.3406109960628 0  481.6235167152198 155.9226567951971 0  478.9433315621651 149.5761436051346 0  476.0892900516498 143.3058908657982 0  473.063559513628 137.1166601437124 0  469.8684376406648 131.0131514433083 0  466.5063507675389 124.9999996907064 0  462.9798520124137 119.0817711822745 0  459.2916193464549 113.2629601339176 0  455.4444535642773 107.5479852733717 0  451.4412761528674 101.9411864767781 0  447.2851270583545 96.44682145403524 0  442.9791624165781 91.06906256805769 0  438.5266521117469 85.81199360630404 0  433.9309773156125 80.67960671046254 0  429.1956279150353 75.67579933888632 0  424.3241998888952 70.80437133373906 0  419.3203925223282 66.06902197812161 0  414.1880056411937 61.47334723289828 0  408.9309366751728 57.0208369601728 0  403.5531778009394 52.71487236176898 0  398.058812796452 48.55872331295853 0  392.4520140187753 44.55554594490843 0  386.7370391799677 40.70838020528396 0  380.9182281475119 37.02014757560744 0  374.9999996718656 33.49364886444181 0  368.9868479340393 30.13156202237255 0  362.8833392380029 26.93644017348339 0  356.6941085456942 23.91070967062674 0  350.4238558420009 21.0566681953261 0  344.0773426899492 18.37648307566465 0  337.6593885328982 15.87218960140942 0  331.1748670549786 13.54568949032341 0  324.6287025315056 11.39874946165088 0  318.0258660010876 9.432999863235466 0  311.3713716017894 7.649933468721599 0  304.6702726190621 6.050904302234756 0  297.9276578269805 4.637126656823085 0  291.148647441857 3.409674127905504 0  284.3383893425031 2.369478825079682 0  277.502055159398 1.517330660648639 0  270.6448362875833 0.853876741662134 0  263.7719400401456 0.3796208889774277 0  256.8885855592052 0.09492324285704967 0  243.1114143979462 0.09492324403817065 0  236.2280598850882 0.3796208931023841 0  229.3551635938215 0.8538767514891958 0  222.4979446968584 1.517330676558146 0  215.6616104703111 2.369478851036291 0  208.8513523382973 3.409674164591252 0  202.0723419066374 4.637126708856528 0  195.3297270659513 6.050904372824903 0  188.628628074828 7.649933550613184 0  181.9741336377093 9.432999965373938 0  175.3712970793675 11.39874958336037 0  168.8251325057572 13.54568964112298 0  162.340610986655 15.87218978129263 0  155.9226567874317 18.37648328793418 0  149.576143602509 21.05666843898663 0  143.3058908718157 23.91070994551046 0  137.1166601505524 26.93644048291054 0  131.0131514451933 30.13156235831508 0  124.9999996848412 33.49364923584736 0  119.0817711715717 37.0201479941652 0  113.2629601211624 40.70838066187849 0  107.5479852622251 44.55554644345162 0  101.9411864693332 48.55872385260452 0  96.44682143286516 52.71487295812284 0  91.06906254351222 57.02083760363669 0  85.81199358272519 61.4733479087879 0  80.67960667988106 66.06902271253972 0  75.67579930062769 70.80437212218331 0  70.80437129287643 75.67580015310926 0  66.06902193673014 80.67960752263491 0  61.47334718684866 85.81199441168215 0  57.02083692524275 91.0690633672404 0  52.71487232786438 96.44682224262129 0  48.55872328070024 101.941187247437 0  44.55554591578033 107.5479860232332 0  40.7083801742321 113.2629608675606 0  37.02014754791168 119.0817718975441 0  33.49364883372994 125.000000381329 0  30.13156199866361 131.0131521097709 0  26.9364401549829 137.1166607985551 0  23.91070965524918 143.3058914868915 0  21.05666818346614 149.576144185037 0  18.37648306853811 155.9226573275967 0  15.8721895918909 162.3406114925245 0  13.54568948170046 168.8251329701392 0  11.39874945301878 175.3712974960928 0  9.432999857087736 181.9741340206533 0  7.649933466342702 188.6286284076045 0  6.050904301250966 195.3297273853278 0  4.637126656808988 202.0723421730917 0  3.409674127767772 208.8513525589684 0  2.369478824521138 215.6616106615248 0  1.517330660909465 222.4979448382452 0  0.8538767414496533 229.355163714981 0  0.3796208887135322 236.2280599646376 0  0.09492324266324204 243.1114144478261 0  0.0949232442452228 256.8885856095658 0  0.3796208935834784 263.7719401236316 0  0.8538767530323526 270.6448364248016 0  1.517330679476544 277.5020553295092 0  2.369478854618649 284.3383895555228 0  3.409674170191892 291.1486476952655 0  4.6371267162381 297.9276581311522 0  6.050904381420935 304.6702729724059 0  7.649933562385399 311.3713719716595 0  9.43299997979841 318.0258664133013 0  11.3987495994252 324.6287029719946 0  13.54568965885832 331.174867545904 0  15.87218979367188 337.6593890464085 0  18.37648329843151 344.0773432384132 0  21.05666844777872 350.423856417535 0  23.91070995156048 356.6941091410045 0  26.93644048988043 362.8833398632205 0  30.13156235982007 368.9868485575877 0  33.49364924138357 375.0000003247478 0  37.0201480006036 380.9182288389023 0  40.70838066758398 386.7370398875706 0  44.55554644477201 392.4520147396792 0  48.55872386086904 398.0588135419111 0  52.71487295981296 403.5531785693063 0  57.02083760525949 408.9309374584583 0  61.47334790862246 414.1880064170849 0  66.06902271205095 419.320393319588 0  70.80437211216579 424.3242006890749 0  75.67580013809859 429.195628692521 0  80.6796075127923 433.930978054209 0  85.81199439754931 438.5266528008431 0  91.06906334717917 442.9791630582355 0  96.44682221438322 447.2851276501571 0  101.9411872243843 451.441276702356 0  107.5479859945825 455.4444540643537 0  113.2629608446994 459.2916198108319 0  119.0817718768376 462.9798524393601 0  125.0000003647644 466.5063511567065 0  131.0131521012763 469.8684379967393 0  137.1166607840049 473.0635598376539 0  143.3058914748804 476.0892903390826 0  149.5761441732679 478.9433318113714 0  155.9226573130112 481.6235169255377 0  162.3406114779862 484.1278104026658 0  168.8251329570439 486.4543105138039 0  175.3712974805475 488.601250542119 0  181.9741340135204 490.5670001408953 0  188.6286284005059 492.3500665318597 0  195.3297273788229 493.9490956972913 0  202.0723421640089 495.3628733414168 0  208.8513525529672 496.5903258712308 0  215.6616106544547 497.6305211744985 0  222.4979448327038 498.4826693384772 0  229.3551637102845 499.1461232581612 0  236.2280599621369 499.6203791111485 0  243.1114144470173 499.9050767573145 0  155.2373389820306 474.8197567317462 0  25.36256300907667 153.9152755065208 0  432.3709625126712 412.6214396304305 0  6.013151705810699 246.637913163471 0  246.6379131630491 493.986848294322 0  338.6995838441862 22.68244767887072 0  477.3175523131281 338.6995838660569 0  493.9868482700757 246.6379131399102 0  246.6201155078769 6.218451882810491 0  417.6179310263282 72.7156044707053 0  102.2232990934413 445.0100869616822 0  63.66330858966404 92.20354579482142 0  391.3105220491464 50.73522820883105 0  72.79295043967942 418.0702734974704 0  448.290574428537 108.25674339002 0  402.4604651193511 440.7462829841712 0  97.55317348421397 59.11376320116034 0  136.7376477664901 33.58246472647134 0  363.3288394375288 465.6947312928271 0  44.0678766556007 381.0860953771871 0  469.6905266180034 142.3890690100806 0  22.68244791668644 338.6995843487432 0  338.699584349159 477.317552078365 0  173.389488083762 18.6681884918202 0  483.4809734778481 179.7121987795732 0  13.50237455842738 306.4709525540879 0  305.9825168523021 487.24416992
[...]
<PointData  Vectors="f_12"> 
<DataArray  type="Float64"  Name="f_12"  NumberOfComponents="3" format="ascii">5.3743162005769296e-01 5.1890459251754872e-01 4.4151895831067739e-01  5.6329309411725037e-01 5.2029879013853242e-01 5.2169124761268137e-01  5.2575208661317918e-01 4.9380823743869123e-01 4.1524811699421110e-01  4.9467830900903353e-01 3.4473669688662945e-01 3.7014713073045785e-01  5.2555027673341836e-01 4.9324598095651495e-01 4.1483366957867646e-01  5.2536622155268431e-01 4.9272919204768062e-01 4.1445678173702399e-01  5.2518857897704641e-01 4.9222688691381961e-01 4.1409407518211355e-01  5.2502617395971629e-01 4.9176474647620144e-01 4.1376329322258554e-01  5.2487501305006534e-01 4.9133190708067970e-01 4.1345623266900072e-01  5.2473563746577712e-01 4.9093061857727671e-01 4.1317370320934188e-01  5.2460784719944364e-01 4.9056081370903115e-01 4.1291522063449199e-01  5.2449071581467577e-01 4.9022022694295220e-01 4.1267878942111874e-01  5.2438515144443076e-01 4.8991192568749914e-01 4.1246609848839638e-01  5.2429180528307362e-01 4.8963823427097336e-01 4.1227838834948904e-01  5.2421747839625465e-01 4.8941955748033855e-01 4.1212911970759364e-01  5.2414001071235194e-01 4.8919097765247238e-01 4.1197382183534459e-01  5.2409379291033797e-01 4.8905414707433020e-01 4.1188129722013883e-01  5.2404731412842909e-01 4.8891627541606797e-01 4.1178841690020718e-01  5.2401552874557433e-01 4.8882167369596446e-01 4.1172507090946042e-01  5.2399448197557752e-01 4.8875880563127150e-01 4.1168329375239360e-01  5.2398301697802319e-01 4.8872431657853016e-01 4.1166069644885428e-01  5.2399047878134963e-01 4.8874590252882960e-01 4.1167608958879365e-01  5.2401110125841521e-01 4.8880647447669634e-01 4.1171790592643875e-01  5.2403593977473850e-01 4.8887946800771442e-01 4.1176819011375126e-01  5.2407420893506962e-01 4.8899211578149693e-01 4.1184546687647716e-01  5.2412963468987950e-01 4.8915513700592844e-01 4.1195728256154490e-01  5.2420367113594779e-01 4.8937261685791722e-01 4.1210657800424827e-01  5.2428158819413651e-01 4.8960086966158084e-01 4.1226390505485927e-01  5.2437191301005137e-01 4.8986468592960192e-01 4.1244645987204315e-01  5.2448446997924114e-01 4.9019238168307083e-01 4.1267412030134276e-01  5.2460398519807827e-01 4.9053882556669809e-01 4.1291632618516189e-01  5.2473960104533934e-01 4.9093002700451061e-01 4.1319163608969511e-01  5.2489010996939578e-01 4.9136199393643193e-01 4.1349779838613604e-01  5.2505068203605332e-01 4.9182014712548716e-01 4.1382516808818204e-01  5.2523459769891623e-01 4.9234150126218551e-01 4.1420097847902743e-01  5.2543153314809476e-01 4.9289580581263659e-01 4.1460456650931488e-01  5.2563670590238876e-01 4.9346889116587994e-01 4.1502623114378601e-01  5.2586502364276277e-01 4.9410123152444463e-01 4.1549694384200292e-01  5.2611757455510910e-01 4.9479412651671323e-01 4.1601950602086735e-01  5.2638116090520526e-01 4.9551007201654174e-01 4.1656695476584871e-01  5.2665492046551243e-01 4.9624572821098484e-01 4.1713780771922571e-01  5.2695348611728710e-01 4.9703879054690403e-01 4.1776300932358473e-01  5.2727729566912140e-01 4.9788846099859435e-01 4.1844396491168701e-01  5.2761603643565824e-01 4.9876509867543795e-01 4.1915995730777722e-01  5.2797836121901587e-01 4.9968909450550969e-01 4.1992978525069663e-01  5.2836221783031068e-01 5.0065300716560879e-01 4.2074961845948322e-01  5.2876671888483950e-01 5.0165179666124338e-01 4.2161851501964603e-01  5.2919123318472228e-01 5.0268141069958283e-01 4.2253610034142003e-01  5.2965085356880837e-01 5.0377415133029735e-01 4.2353584076286405e-01  5.3013115821523926e-01 5.0489298653241821e-01 4.2458755243876933e-01  5.3063664383829501e-01 5.0604320763153021e-01 4.2570273156754257e-01  5.3117019954859956e-01 5.0722915648378553e-01 4.2688825795696139e-01  5.3172956342570632e-01 5.0843962684376354e-01 4.2814133530880649e-01  5.3232582411731144e-01 5.0969411411024101e-01 4.2948815803934054e-01  5.3295068516817945e-01 5.1096882722946690e-01 4.3091203647160370e-01  5.3360331271646455e-01 5.1225631976437869e-01 4.3241328944665175e-01  5.3429397855564653e-01 5.1357042774437189e-01 4.3401740254784593e-01  5.3501803673552417e-01 5.1489469263295373e-01 4.3571677583304025e-01  5.3577427800905764e-01 5.1622093047562245e-01 4.3750904414903280e-01  5.3655218254007486e-01 5.1752873557467460e-01 4.3937390613223276e-01  5.3829464619051737e-01 5.2020281497860110e-01 4.4363604088871572e-01  5.3920773145200906e-01 5.2148164854730206e-01 4.4591327038441991e-01  5.4015667364404096e-01 5.2271609721194789e-01 4.4831536091904450e-01  5.4116316601125292e-01 5.2392416448048629e-01 4.5089818670556370e-01  5.4221001808143598e-01 5.2506451122019016e-01 4.5363110390625933e-01  5.4330094800789219e-01 5.2613248413736757e-01 4.5652372435091942e-01  5.4443748322475716e-01 5.2710415520866238e-01 4.5959572516430625e-01  5.4562171557376893e-01 5.2796881097483794e-01 4.6285669039128507e-01  5.4684931965672512e-01 5.2870213488900586e-01 4.6630646401650389e-01  5.4811837155509502e-01 5.2928209165054640e-01 4.6995138681466031e-01  5.4944362404723102e-01 5.2969113750231434e-01 4.7384581384462532e-01  5.5080282288903648e-01 5.2989713186959553e-01 4.7794148739847125e-01  5.5220658608177420e-01 5.2987869923730746e-01 4.8228276632968936e-01  5.5365763346525065e-01 5.2960160087795050e-01 4.8690063451813409e-01  5.5514808526877413e-01 5.2903497703726654e-01 4.9179031347822932e-01  5.5667078792808755e-01 5.2814301502096461e-01 4.9695624242383202e-01  5.5822282004719115e-01 5.2689390801396974e-01 5.0241166356595013e-01  5.5979832186093759e-01 5.2524452281487666e-01 5.0817239994898289e-01  5.6139460949044018e-01 5.2315085971881137e-01 5.1426414031361645e-01  5.6300137371605585e-01 5.2057653159611317e-01 5.2068610029966866e-01  5.6459484962612239e-01 5.1750973350891172e-01 5.2738446696638397e-01  5.6618947010828746e-01 5.1382722902254196e-01 5.3449523499744589e-01  5.6775300422177133e-01 5.0953671206975071e-01 5.4192942731749505e-01  5.6927464694650576e-01 5.0458681863630916e-01 5.4970209541580572e-01  5.7073302204186449e-01 4.9893220781714542e-01 5.5779563536172561e-01  5.7210459927061408e-01 4.9254714046475878e-01 5.6617320495726453e-01  5.7336551722588924e-01 4.8541218202538872e-01 5.7479133011372319e-01  5.7448889894851041e-01 4.7752835672742522e-01 5.8358391328099601e-01  5.7545202686140684e-01 4.6892780060805755e-01 5.9246546119853383e-01  5.7622579363338378e-01 4.5967224553085900e-01 6.0131578453494405e-01  5.7679225219445351e-01 4.4990533709394087e-01 6.0997388801229424e-01  5.7714186824128288e-01 4.3983311363595090e-01 6.1825375120263149e-01  5.7727734436485101e-01 4.2977926985822046e-01 6.2592006712265325e-01  5.7722426536164717e-01 4.2002197871645902e-01 6.3282515051061472e-01  5.7702619918874620e-01 4.1103386881425213e-01 6.3874414032871685e-01  5.7675406834445786e-01 4.0350405571875669e-01 6.4338253439274606e-01  5.7648538368230584e-01 3.9789900144988849e-01 6.4663017606753292e-01  5.7628778423723293e-01 3.9467719927508210e-01 6.4837644397160632e-01  5.7623455895631392e-01 3.9471246228227236e-01 6.4822375663656773e-01  5.7632580177588666e-01 3.9841133978866777e-01 6.4589711608243527e-01  5.7645679634381453e-01 4.0579671370111042e-01 6.4108694650716758e-01  5.7645408124554687e-01 4.1794063438646978e-01 6.3254395652410000e-01  5.7594972990335513e-01 4.3426041266402654e-01 6.1961870162967336e-01  5.7441750445647655e-01 4.5445599415987054e-01 6.0107681329548324e-01  5.7119962871153895e-01 4.7653685780905719e-01 5.7648576420770625e-01  5.6573591688673341e-01 4.9732309888888959e-01 5.4640618664430529e-01  5.5794796215745845e-01 5.1232136983396792e-01 5.1319979751037004e-01  5.4840510579117752e-01 5.1742241155384772e-01 4.8020198920586848e-01  5.3812047634223092e-01 5.1056817100125995e-01 4.5051805695368485e-01  5.2823542213004204e-01 4.9316796170853561e-01 4.2596790161007653e-01  5.1956738147975867e-01 4.6922393133219009e-01 4.0717519389429579e-01  5.1249791521203880e-01 4.4303502065463141e-01 3.9379787337594757e-01  5.0692209389874743e-01 4.1785052871277534e-01 3.8456149628614916e-01  5.0257268667351152e-01 3.9504484645874194e-01 3.7834383382624193e-01  4.9923257950214417e-01 3.7535662040459772e-01 3.7427049354168934e-01  4.9665245164519062e-01 3.5861814927231112e-01 3.7170189327301878e-01  4.9323470695364718e-01 3.3375999618268148e-01 3.6939164315774714e-01  4.9190255823675028e-01 3.2326480074800978e-01 3.6881801541708126e-01  4.9110420779966030e-01 3.1640275271665730e-01 3.6874704000242553e-01  4.9045854154526586e-01 3.1067849850100060e-01 3.6878095371699932e-01  4.8998749378031525e-01 3.0637493468704419e-01 3.6886438109616315e-01  4.8968860019977228e-01 3.0356106306590380e-01 3.6895986756296956e-01  4.8953197672510740e-01 3.0206557820178753e-01 3.6901945401087144e-01  4.8949970626452038e-01 3.0175544944229854e-01 3.6903293772719481e-01  4.8959761458815992e-01 3.0269363820956874e-01 3.6899355681943391e-01  4.8978184382974860e-01 3.0445123412266850e-01 3.6892433895383958e-01  4.9017391010266570e-01 3.0809937399755571e-01 3.6882092061435295e-01  4.9070781743723535e-01 3.1291266452055644e-01 3.6875634421967074e-01  4.9142251066776010e-01 3.1912188318262313e-01 3.6878624081310196e-01  4.9232556576358094e-01 3.2665183723619307e-01 3.6896755059002989e-01  4.9350609745365071e-01 3.3599073175752248e-01 3.6943710494668108e-01  4.9503899125284179e-01 3.4741293976911725e-01 3.7035883490532745e-01  4.9695314147558656e-01 3.6074836239329860e-01 3.7189953095478789e-01  4.9934430573125199e-01 3.7621523066584378e-01 3.7428359686207713e-01  5.0232699455511898e-01 3.9391191927818975e-01 3.7783580410000306e-01  5.0603509271711067e-01 4.1379923720814143e-01 3.8296499740881496e-01  5.1065209932059641e-01 4.3562782995647281e-01 3.9027030621889880e-01  5.1623331905254422e-01 4.5831939876636768e-01 4.0015049628835564e-01  5.2275456658455688e-01 4.8013176962341797e-01 4.1297094584781774e-01  5.3012379228941098e-01 4.9909073821001382e-01 4.2906763515946672e-01  5.3807008730627048e-01 5.1310044409707201e-01 4.4839046910550145e-01  5.4611594617627357e-01 5.2053543605914143e-01 4.7035811635816166e-01  5.5371810574504166e-01 5.2102924147614349e-01 4.9389425433221790e-01  5.6036547391206692e-01 5.1546135886705902e-01 5.1754638141752007e-01  5.6576728688893707e-01 5.0557957404449216e-01 5.3994151217013009e-01  5.6984604880672129e-01 4.9339800462968753e-01 5.5994502576640626e-01  5.7272475732379202e-01 4.8066830358015661e-01 5.7692610012912016e-01  5.7462723203746768e-01 4.6882136393745277e-01 5.9058326940821149e-01  5.7581778159458830e-01 4.5861736010123438e-01 6.0113103377763522e-01  5.7651047153871271e-01 4.5054607856323109e-01 6.0880358341283713e-01  5.7690579013667787e-01 4.4449985143331183e-01 6.1421906172198082e-01  5.7711338814482749e-01 4.4073371787467519e-01 6.1748499011938252e-01  5.7721177990112393e-01 4.3908444195284629e-01 6.1892999836920570e-01  5.7724007956498202e-01 4.3934918547948898e-01 6.1880457430000990e-01  5.7721106094031316e-01 4.4128228788334556e-01 6.1731667671498813e-01  5.7711925081348392e-01 4.4459319889340870e-01 6.1465880779534532e-01  5.7695729168154875e-01 4.4884449663835108e-01 6.1112718577337133e-01  5.7670997755762354e-01 4.5382643162890862e-01 6.0682924116972359e-01  5.7635844645277023e-01 4.5939765267466925e-01 6.0181794748315565e-01  5.7590636161770448e-01 4.6517197780388814e-01 5.9638480882508293e-01  5.7535005936628114e-01 4.7099795447340020e-01 5.9063167666737271e-01  5.7469107403437703e-01 4.7676851332342218e-01 5.8464134229743969e-01  5.7392691860603373e-01 4.8242432517830214e-01 5.7845103903097672e-01  5.7308896662464304e-01 4.8771307462855812e-01 5.7232888501347312e-01  5.7216555198120511e-01 4.9275201377956190e-01 5.6615737351741302e-01  5.7118455144604829e-01 4.9742739379792633e-01 5.6008855027214788e-01  5.7013513968453333e-01 5.0177628608943514e-01 5.5406933659872715e-01  5.6905055788768211e-01 5.0574228613429817e-01 5.4822239507997572e-01  5.6793691840505278e-01 5.0932128471329907e-01 5.4256787565207132e-01  5.6679597725833009e-01 5.1255555810770415e-01 5.3707497267730253e-01  5.6563496320135487e-01 5.1545579569891598e-01 5.3175358316697985e-01  5.6446641533448583e-01 5.1803010910437230e-01 5.2662842797706000e-01  5.6212192611270140e-01 5.2227852670832142e-01 5.1694690303362867e-01  5.6095847860013737e-01 5.2398491592715501e-01 5.1239799652443296e-01  5.5979887955621854e-01 5.2544540243251747e-01 5.0801323538162602e-01  5.5865457189564549e-01 5.2667073160704669e-01 5.0381524919730203e-01  5.5752571589658062e-01 5.2767896850969764e-01 4.9979193223511492e-01  5.5641398440459133e-01 5.2848776931103636e-01 4.9593490255271289e-01  5.5532105573560220e-01 5.2911199087854577e-01 4.9223848479909971e-01  5.5424919040965259e-01 5.2956713712992776e-01 4.8869827591862913e-01  5.5319859005584859e-01 5.2986691652321549e-01 4.8530578567483440e-01  5.5217026730884977e-01 5.3002444626574785e-01 4.8205509033261762e-01  5.5116500403139757e-01 5.3005087464252809e-01 4.7894181123030127e-01  5.5018634007749390e-01 5.2996123672274931e-01 4.7596655020635509e-01  5.4922589343228023e-01 5.2976211619484070e-01 4.7309997253263603e-01  5.4828798156574177e-01 5.2946507065878379e-01 4.7034852063251176e-01  5.4737912097591046e-01 5.2908137275615919e-01 4.6772565752020973e-01  5.4648284970150673e-01 5.2861078406690842e-01 4.6518046949932146e-01  5.4561081727159910e-01 5.2806783162783455e-01 4.6274112237037063e-01  5.4477164854024385e-01 5.2746663144390393e-01 4.6042620996208516e-01  5.4395009077757328e-01 5.2680226253004103e-01 4.5819263310742431e-01  5.4315029283696892e-01 5.2608707831699442e-01 4.5604492891505533e-01  5.4237132824454615e-01 5.2532369445057236e-01 4.5398037003238584e-01  5.4161411783608948e-01 5.2451930537997749e-01 4.5199786598252767e-01  5.4087604803115497e-01 5.2367692202548211e-01 4.5008770018527156e-01  5.4015660296996226e-01 5.2279993913012535e-01 4.4824696869090258e-01  5.3946175157585885e-01 5.2190143525746513e-01 4.4648820366449588e-01  5.3878483816402878e-01 5.2097673706961989e-01 4.4479284986347933e-01  5.3812357973619696e-01 5.2002780752830480e-01 4.4315320145145698e-01  5.3748792779749177e-01 5.1907190772693801e-01 4.4159239423734198e-01  5.3686546925040401e-01 5.1809462563273512e-01 4.4007866194085216e-01  5.3626128043495402e-01 5.1710768716539524e-01 4.3862221738721757e-01  5.3567618416139806e-01 5.1611562380827658e-01 4.3722427508804851e-01  5.3510816635039526e-01 5.1511815839178876e-01 4.3587864931307446e-01  5.3455731310580523e-01 5.1411868139216310e-01 4.3458433880187514e-01  5.3402157275064488e-01 5.1311606718982705e-01 4.3333561238201235e-01  5.3349867267376494e-01 5.1210854868307565e-01 4.3212620030547838e-01  5.3299819617886235e-01 5.1111772648238851e-01 4.3097708081914027e-01  5.3251497740964071e-01 5.1013594016741726e-01 4.2987563769768167e-01  5.3203805099086943e-01 5.0914292754381674e-01 4.2879612316161425e-01  5.3158115836305908e-01 5.0816938160545500e-01 4.2776888692041998e-01  5.3114263600386380e-01 5.0721411615929524e-01 4.2678950235205876e-01  5.3071585234811969e-01 5.0626507256147368e-01 4.2584226404917402e-01  5.3030448812969222e-01 5.0533228996740620e-01 4.2493464713845241e-01  5.2990469247162086e-01 5.0440842576667544e-01 4.2405799049159454e-01  5.2952425827858685e-01 5.0351393394077182e-01 4.2322813781262431e-01  5.2915400876769725e-01 5.0262839302867079e-01 4.2242524732239128e-01  5.2879926168042424e-01 5.0176638256593475e-01 4.2165994193125383e-01  5.2845642819043692e-01 5.0092061962258505e-01 4.2092397465485654e-01  5.2812425664926832e-01 5.0008935421562850e-01 4.2021438109468751e-01  5.2781045692509310e-01 4.9929310425615075e-01 4.1954748399546560e-01  5.2751088167605331e-01 4.9852305758376131e-01 4.1891355166322475e-01  5.2721889536983824e-01 4.9776338982976676e-01 4.1829838124973856e-01  5.2694306080155195e-01 4.9703730091430237e-01 4.1771966167009400e-01  5.2668193120229112e-01 4.9634235136554250e-01 4.1717407895260078e-01  5.2643176357534438e-01 4.9566966902649851e-01 4.1665326905518557e-01  5.2619294568092934e-01 4.9502138074690344e-01 4.1615793069596818e-01  5.2596926268698641e-01 4.9440848506958857e-01 4.1569552262709020e-01  5.3015878465603516e-01 5.0499806951814485e-01 4.2461400753924256e-01  5.7663820406914079e-01 4.5501647281222973e-01 6.0577205342409546e-01  5.2521809460649727e-01 4.9229590207461382e-01 4.1416638617061008e-01  5.6395099108180935e-01 5.1906093916839424e-01 5.2443744124070490e-01  5.2592538160804625e-01 4.9428828988505047e-01 4.1560443091416838e-01  5.7539373540082717e-01 4.3874769104926159e-01 6.1507959532641010e-01  5.2906416121127009e-01 5.0237571101161116e-01 4.2226012244210320e-01  5.3794110148058305e-01 5.1968870301791048e-01 4.4276180866988246e-01  4.9417754227193317e-01 3.4104381973726056e-01 3.6983526080597723e-01  5.7590454265621815e-01 4.6380212109523755e-01 5.9743420538052217e-01  5.3435823790735804e-01 5.1374976125657990e-01 4.3411884838181142e-01  5.7410906124507288e-01 4.7095037743641699e-01 5.8774487138873899e-01  5.7709012427069273e-01 4.1359938181253791e-01 6.3708754977040560e-01  5.3784388239446779e-01 5.1961285126270951e-01 4.4246414134156437e-01  5.6707907808233093e-01 5.1147015823293862e-01 5.3866856340216474e-01  5.2438714605891690e-01 4.8991019687019316e-01 4.1247626473929755e-01  5.3504902964066647e-01 5.0791934505974567e-01 4.4125422493161454e-01  4.9852345170820156e-01 3.7096395081680356e-01 3.7346103301957190e-01  5.2405672946621362e-01 4.8894333802979389e-01 4.1180802860676780e-01  5.4277046043437671e-01 5.2572270834770363e-01 4.5503484825711565e-01  5.5756145603418172e-01 5.2746566424583308e-01 5.0006487231587482e-01  5.4882396583840987e-01 5.2965007942965969e-01 4.7191398072482155e-01  5.2413257575533201e-01 4.8916907389000797e-01 4.1195874130396570e-01  4.9071676284528337e-01 3.1298823459689312e-01 3.6875847227936387e-01  5.4901747120870636e-01 5.2958173538035713e-01 4.7258371169680685e-01  5.5381403092385406e-01 5.2970758957487118e-01 4.8728454492131734e-01  5.2451785642607474e-01 4.9029973735774307e-01 4.1273305763699641e-01  5.2802611999648996e-01 4.9984237869156389e-01 4.2000482876815126e-01  5.7268996669477068e-01 4.8996357515544131e-01 5.6961012883481765e-01  5.3441790695084790e-01 5.0457983317615973e-01 4.4138962774759416e-01  5.3211574311596554e-01 5.0925751731068747e-01 4.2901144436427258e-01  5.2653619848731570e-01 4.9592829548222528e-01 4.1688924343076983e-01  4.8975105908218219e-01 3.0414055748946284e-01 3.6894258704717675e-01  5.4404021372059486e-01 5.2677933927673171e-01 4.5851589355107863e-01  5.5816340944980669e-01 5.2713214860362578e-01 5.0205173617782228e-01  5.2501445717250272e-01 4.9173172395577347e-01 4.1373899033753481e-01  5.7613236087831854e-01 3.9264260027341513e-01 6.4940743628665776e-01  5.7725106200997067e-01 4.3762307427408492e-01 6.2010112116362381e-01  5.2686967527587347e-01 4.9684333434873279e-01 4.1756558078892697e-01  5.3188278374449716e-01 5.0881601317602920e-01 4.2844544703188336e-01  5.6846020225070459e-01 5.0769124139840061e-01 5.4518940345772804e-01  5.0560619529838946e-01 4.1111979081150396e-01 3.8266328451582837e-01  5.3466734980854469e-01 5.1425985765231796e-01 4.3489114488543407e-01  5.2419631749088336e-01 4.8935289400152809e-01 4.1209012288266283e-01  5.3048096850987536e-01 5.0569306935573932e-01 4.2535738145716928e-01  4.9089767254964900e-01 3.1456113630621724e-01 3.6876623859211249e-01  5.6319581980963118e-01 5.0174264160177096e-01 5.3617613423412680e-01  5.4078753791774625e-01 5.2348813624307389e-01 4.4992847447093021e-01  5.7286460674047568e-01 4.8839737045524639e-01 5.7125975409617358e-01  5.2903119190046233e-01 5.0233185090146293e-01 4.2215924361302481e-01  5.2584324209306299e-01 4.9404264771591977e-01 4.1545081419422697e-01  5.3984276338327875e-01 5.2240130593737510e-01 4.4744959227594849e-01  5.1433101589032482e-01 4.5069041307746321e-01 3.9685834828872379e-01  5.4519702777144174e-01 5.2778214281526425e-01 4.6159513478937408e-01  5.7507951609021690e-01 4.7344863627465256e-01 5.8811498720292821e-01  5.2752495227057106e-01 4.9853164151490581e-01 4.1896613571261709e-01  5.3603120624