<?xml version="1.0"?>
<VTKFile type="UnstructuredGrid"  version="0.1"  >
<UnstructuredGrid>
<Piece  NumberOfPoints="4940" NumberOfCells="9650">
<Points>
<DataArray  type="Float64"  NumberOfComponents="3"  format="ascii">500 250 0  0 250 0  250 500 0  250 0 0  256.8885856082646 499.9050767557906 0  263.7719401218049 499.6203791065173 0  270.6448364229772 499.1461232471188 0  277.5020553257866 498.4826693209355 0  284.3383895508592 497.6305211460281 0  291.1486476865662 496.5903258312597 0  297.9276581259182 495.3628732847843 0  304.6702729675493 493.9490956196674 0  311.3713719748657 492.3500664368026 0  318.0258664141369 490.5670000199653 0  324.6287029687753 488.6012504015818 0  331.1748675330201 486.4543103455647 0  337.6593890460416 484.1278102064655 0  344.0773432429536 481.6235166997244 0  350.4238564271474 478.9433315480048 0  356.694109139292 476.0892900492477 0  362.88333985546 473.0635595140469 0  368.9868485575419 469.8684376402048 0  375.0000003153078 466.5063507640667 0  380.9182288257928 462.9798520074548 0  386.7370398729688 459.2916193419558 0  392.4520147244077 455.444453565817 0  398.0588135356345 451.4412761437442 0  403.5531785622926 447.285127045646 0  408.9309374414144 442.9791624087773 0  414.1880064015299 438.5266521049243 0  419.3203932989752 433.9309773069245 0  424.324200661095 429.1956279150535 0  429.1956286596235 424.3241998957182 0  433.9309780058756 419.3203925397119 0  438.5266527445345 414.1880056671062 0  442.9791630130591 408.9309367076756 0  447.2851276060475 403.5531778422888 0  451.4412766621026 398.0588128303826 0  455.4444540361634 392.4520140460735 0  459.2916197786263 386.7370392045948 0  462.9798524073514 380.9182281752347 0  466.5063511234856 374.9999996927758 0  469.8684379657123 368.9868479560565 0  473.0635598144817 362.8833392617846 0  476.0892903190255 356.6941085676214 0  478.9433317963513 350.4238558609745 0  481.6235169154735 344.0773427117675 0  484.12781039012 337.6593885555221 0  486.4543105028062 331.1748670749914 0  488.601250531677 324.6287025528375 0  490.5670001317469 318.0258660188321 0  492.3500665291326 311.3713716102628 0  493.949095695951 304.6702726271575 0  495.3628733416623 297.9276578347343 0  496.5903258712341 291.1486474470129 0  497.6305211749058 284.3383893426084 0  498.4826693388848 277.502055163614 0  499.1461232580606 270.6448362909296 0  499.6203791109319 263.7719400417897 0  499.9050767571306 256.8885855596534 0  499.9050767559877 243.1114143988867 0  499.6203791069493 236.2280598860241 0  499.1461232485393 229.3551635941651 0  498.4826693235677 222.4979446979962 0  497.6305211491849 215.6616104719064 0  496.5903258357701 208.8513523404629 0  495.3628732906988 202.0723419043604 0  493.9490956264813 195.3297270628552 0  492.3500664487791 188.6286280724281 0  490.5670000344809 181.9741336371959 0  488.6012504175981 175.3712970824318 0  486.4543103623226 168.8251325157939 0  484.1278102222298 162.3406109960628 0  481.6235167152198 155.9226567951971 0  478.9433315621651 149.5761436051346 0  476.0892900516498 143.3058908657982 0  473.063559513628 137.1166601437124 0  469.8684376406648 131.0131514433083 0  466.5063507675389 124.9999996907064 0  462.9798520124137 119.0817711822745 0  459.2916193464549 113.2629601339176 0  455.4444535642773 107.5479852733717 0  451.4412761528674 101.9411864767781 0  447.2851270583545 96.44682145403524 0  442.9791624165781 91.06906256805769 0  438.5266521117469 85.81199360630404 0  433.9309773156125 80.67960671046254 0  429.1956279150353 75.67579933888632 0  424.3241998888952 70.80437133373906 0  419.3203925223282 66.06902197812161 0  414.1880056411937 61.47334723289828 0  408.9309366751728 57.0208369601728 0  403.5531778009394 52.71487236176898 0  398.058812796452 48.55872331295853 0  392.4520140187753 44.55554594490843 0  386.7370391799677 40.70838020528396 0  380.9182281475119 37.02014757560744 0  374.9999996718656 33.49364886444181 0  368.9868479340393 30.13156202237255 0  362.8833392380029 26.93644017348339 0  356.6941085456942 23.91070967062674 0  350.4238558420009 21.0566681953261 0  344.0773426899492 18.37648307566465 0  337.6593885328982 15.87218960140942 0  331.1748670549786 13.54568949032341 0  324.6287025315056 11.39874946165088 0  318.0258660010876 9.432999863235466 0  311.3713716017894 7.649933468721599 0  304.6702726190621 6.050904302234756 0  297.9276578269805 4.637126656823085 0  291.148647441857 3.409674127905504 0  284.3383893425031 2.369478825079682 0  277.502055159398 1.517330660648639 0  270.6448362875833 0.853876741662134 0  263.7719400401456 0.3796208889774277 0  256.8885855592052 0.09492324285704967 0  243.1114143979462 0.09492324403817065 0  236.2280598850882 0.3796208931023841 0  229.3551635938215 0.8538767514891958 0  222.4979446968584 1.517330676558146 0  215.6616104703111 2.369478851036291 0  208.8513523382973 3.409674164591252 0  202.0723419066374 4.637126708856528 0  195.3297270659513 6.050904372824903 0  188.628628074828 7.649933550613184 0  181.9741336377093 9.432999965373938 0  175.3712970793675 11.39874958336037 0  168.8251325057572 13.54568964112298 0  162.340610986655 15.87218978129263 0  155.9226567874317 18.37648328793418 0  149.576143602509 21.05666843898663 0  143.3058908718157 23.91070994551046 0  137.1166601505524 26.93644048291054 0  131.0131514451933 30.13156235831508 0  124.9999996848412 33.49364923584736 0  119.0817711715717 37.0201479941652 0  113.2629601211624 40.70838066187849 0  107.5479852622251 44.55554644345162 0  101.9411864693332 48.55872385260452 0  96.44682143286516 52.71487295812284 0  91.06906254351222 57.02083760363669 0  85.81199358272519 61.4733479087879 0  80.67960667988106 66.06902271253972 0  75.67579930062769 70.80437212218331 0  70.80437129287643 75.67580015310926 0  66.06902193673014 80.67960752263491 0  61.47334718684866 85.81199441168215 0  57.02083692524275 91.0690633672404 0  52.71487232786438 96.44682224262129 0  48.55872328070024 101.941187247437 0  44.55554591578033 107.5479860232332 0  40.7083801742321 113.2629608675606 0  37.02014754791168 119.0817718975441 0  33.49364883372994 125.000000381329 0  30.13156199866361 131.0131521097709 0  26.9364401549829 137.1166607985551 0  23.91070965524918 143.3058914868915 0  21.05666818346614 149.576144185037 0  18.37648306853811 155.9226573275967 0  15.8721895918909 162.3406114925245 0  13.54568948170046 168.8251329701392 0  11.39874945301878 175.3712974960928 0  9.432999857087736 181.9741340206533 0  7.649933466342702 188.6286284076045 0  6.050904301250966 195.3297273853278 0  4.637126656808988 202.0723421730917 0  3.409674127767772 208.8513525589684 0  2.369478824521138 215.6616106615248 0  1.517330660909465 222.4979448382452 0  0.8538767414496533 229.355163714981 0  0.3796208887135322 236.2280599646376 0  0.09492324266324204 243.1114144478261 0  0.0949232442452228 256.8885856095658 0  0.3796208935834784 263.7719401236316 0  0.8538767530323526 270.6448364248016 0  1.517330679476544 277.5020553295092 0  2.369478854618649 284.3383895555228 0  3.409674170191892 291.1486476952655 0  4.6371267162381 297.9276581311522 0  6.050904381420935 304.6702729724059 0  7.649933562385399 311.3713719716595 0  9.43299997979841 318.0258664133013 0  11.3987495994252 324.6287029719946 0  13.54568965885832 331.174867545904 0  15.87218979367188 337.6593890464085 0  18.37648329843151 344.0773432384132 0  21.05666844777872 350.423856417535 0  23.91070995156048 356.6941091410045 0  26.93644048988043 362.8833398632205 0  30.13156235982007 368.9868485575877 0  33.49364924138357 375.0000003247478 0  37.0201480006036 380.9182288389023 0  40.70838066758398 386.7370398875706 0  44.55554644477201 392.4520147396792 0  48.55872386086904 398.0588135419111 0  52.71487295981296 403.5531785693063 0  57.02083760525949 408.9309374584583 0  61.47334790862246 414.1880064170849 0  66.06902271205095 419.320393319588 0  70.80437211216579 424.3242006890749 0  75.67580013809859 429.195628692521 0  80.6796075127923 433.930978054209 0  85.81199439754931 438.5266528008431 0  91.06906334717917 442.9791630582355 0  96.44682221438322 447.2851276501571 0  101.9411872243843 451.441276702356 0  107.5479859945825 455.4444540643537 0  113.2629608446994 459.2916198108319 0  119.0817718768376 462.9798524393601 0  125.0000003647644 466.5063511567065 0  131.0131521012763 469.8684379967393 0  137.1166607840049 473.0635598376539 0  143.3058914748804 476.0892903390826 0  149.5761441732679 478.9433318113714 0  155.9226573130112 481.6235169255377 0  162.3406114779862 484.1278104026658 0  168.8251329570439 486.4543105138039 0  175.3712974805475 488.601250542119 0  181.9741340135204 490.5670001408953 0  188.6286284005059 492.3500665318597 0  195.3297273788229 493.9490956972913 0  202.0723421640089 495.3628733414168 0  208.8513525529672 496.5903258712308 0  215.6616106544547 497.6305211744985 0  222.4979448327038 498.4826693384772 0  229.3551637102845 499.1461232581612 0  236.2280599621369 499.6203791111485 0  243.1114144470173 499.9050767573145 0  155.2373389820306 474.8197567317462 0  25.36256300907667 153.9152755065208 0  432.3709625126712 412.6214396304305 0  6.013151705810699 246.637913163471 0  246.6379131630491 493.986848294322 0  338.6995838441862 22.68244767887072 0  477.3175523131281 338.6995838660569 0  493.9868482700757 246.6379131399102 0  246.6201155078769 6.218451882810491 0  417.6179310263282 72.7156044707053 0  102.2232990934413 445.0100869616822 0  63.66330858966404 92.20354579482142 0  391.3105220491464 50.73522820883105 0  72.79295043967942 418.0702734974704 0  448.290574428537 108.25674339002 0  402.4604651193511 440.7462829841712 0  97.55317348421397 59.11376320116034 0  136.7376477664901 33.58246472647134 0  363.3288394375288 465.6947312928271 0  44.0678766556007 381.0860953771871 0  469.6905266180034 142.3890690100806 0  22.68244791668644 338.6995843487432 0  338.699584349159 477.317552078365 0  173.389488083762 18.6681884918202 0  483.4809734778481 179.7121987795732 0  13.50237455842738 306.4709525540879 0  305.9825168523021 487.24416992
[...]
<PointData  Vectors="f_12"> 
<DataArray  type="Float64"  Name="f_12"  NumberOfComponents="3" format="ascii">2.5646666666666669e-03 2.5646666666666668e-01 4.5918888888888887e-01  2.5976666666666665e-03 2.5976666666666665e-01 4.7418888888888888e-01  2.7065666666666664e-03 2.7065666666666666e-01 4.3668888888888890e-01  2.7032666666666665e-03 2.7032666666666666e-01 4.9668888888888890e-01  2.7067060343580474e-03 2.7067060343580474e-01 4.3649362210994608e-01  2.7066547765436828e-03 2.7066547765436827e-01 4.3632128519245261e-01  2.7064120099036795e-03 2.7064120099036792e-01 4.3617200900654535e-01  2.7059774314470058e-03 2.7059774314470059e-01 4.3604590691060302e-01  2.7053513202218373e-03 2.7053513202218371e-01 4.3594307466483972e-01  2.7045345372573204e-03 2.7045345372573204e-01 4.3586359035854072e-01  2.7035285237384690e-03 2.7035285237384687e-01 4.3580751435093723e-01  2.7023352974232177e-03 2.7023352974232179e-01 4.3577488922550228e-01  2.7009574472947858e-03 2.7009574472947856e-01 4.3576573975722654e-01  2.6993981264935084e-03 2.6993981264935085e-01 4.3578007289406889e-01  2.6976610435135895e-03 2.6976610435135895e-01 4.3581787775163583e-01  2.6957504517301067e-03 2.6957504517301067e-01 4.3587912562143050e-01  2.6936711372514532e-03 2.6936711372514532e-01 4.3596376999273179e-01  2.6914284051632580e-03 2.6914284051632581e-01 4.3607174658763331e-01  2.6890280641730167e-03 2.6890280641730169e-01 4.3620297341031389e-01  2.6864764097413404e-03 2.6864764097413402e-01 4.3635735080880039e-01  2.6837802057026881e-03 2.6837802057026883e-01 4.3653476155153942e-01  2.6809466644904080e-03 2.6809466644904079e-01 4.3673507091533803e-01  2.6779834259703316e-03 2.6779834259703317e-01 4.3695812678774160e-01  2.6748985349625844e-03 2.6748985349625842e-01 4.3720375978322051e-01  2.6717004175373436e-03 2.6717004175373438e-01 4.3747178337166509e-01  2.6683978561500479e-03 2.6683978561500477e-01 4.3776199401925864e-01  2.6649999636471945e-03 2.6649999636471944e-01 4.3807417134557053e-01  2.6615161563361919e-03 2.6615161563361917e-01 4.3840807828654255e-01  2.6579561260482521e-03 2.6579561260482520e-01 4.3876346127659316e-01  2.6543298113498276e-03 2.6543298113498276e-01 4.3914005044425208e-01  2.6506473680640488e-03 2.6506473680640485e-01 4.3953755981308867e-01  2.6469191390730389e-03 2.6469191390730390e-01 4.3995568751924963e-01  2.6431556235359823e-03 2.6431556235359821e-01 4.4039411604161399e-01  2.6393674456205163e-03 2.6393674456205163e-01 4.4085251244394719e-01  2.6355653228604032e-03 2.6355653228604031e-01 4.4133052862650013e-01  2.6317600341798698e-03 2.6317600341798697e-01 4.4182780159357604e-01  2.6279623878148208e-03 2.6279623878148206e-01 4.4234395371963281e-01  2.6241831889550495e-03 2.6241831889550493e-01 4.4287859304937988e-01  2.6204332075792530e-03 2.6204332075792530e-01 4.4343131358227517e-01  2.6167231462106422e-03 2.6167231462106422e-01 4.4400169559097868e-01  2.6130636079671299e-03 2.6130636079671299e-01 4.4458930593564017e-01  2.6094650648679808e-03 2.6094650648679807e-01 4.4519369839205120e-01  2.6059378264901697e-03 2.6059378264901695e-01 4.4581441399519073e-01  2.6024920091579553e-03 2.6024920091579551e-01 4.4645098138304029e-01  2.5991375056870851e-03 2.5991375056870852e-01 4.4710291715120354e-01  2.5958839557133013e-03 2.5958839557133012e-01 4.4776972623168138e-01  2.5927407168997085e-03 2.5927407168997085e-01 4.4845090225601253e-01  2.5897168368622593e-03 2.5897168368622592e-01 4.4914592795052261e-01  2.5868210260943181e-03 2.5868210260943181e-01 4.4985427552480572e-01  2.5840616318948358e-03 2.5840616318948356e-01 4.5057540706659810e-01  2.5814466133077733e-03 2.5814466133077735e-01 4.5130877496267663e-01  2.5789835173270475e-03 2.5789835173270476e-01 4.5205382229978336e-01  2.5766794562216843e-03 2.5766794562216844e-01 4.5280998330275141e-01  2.5745410862667091e-03 2.5745410862667090e-01 4.5357668374847088e-01  2.5725745877352665e-03 2.5725745877352663e-01 4.5435334141911032e-01  2.5707856464041068e-03 2.5707856464041068e-01 4.5513936653252868e-01  2.5691794365018043e-03 2.5691794365018045e-01 4.5593416218908867e-01  2.5677606051676765e-03 2.5677606051676766e-01 4.5673712483623546e-01  2.5665332585457297e-03 2.5665332585457296e-01 4.5754764471054615e-01  2.5655009494364080e-03 2.5655009494364078e-01 4.5836510631901656e-01  2.5640328261013856e-03 2.5640328261013856e-01 4.6001836685834285e-01  2.5636012634182559e-03 2.5636012634182559e-01 4.6085291032935749e-01  2.5633732285847816e-03 2.5633732285847816e-01 4.6169188556013291e-01  2.5633493821117397e-03 2.5633493821117398e-01 4.6253465544542227e-01  2.5635297930730874e-03 2.5635297930730871e-01 4.6338057999778454e-01  2.5639139388976594e-03 2.5639139388976595e-01 4.6422901683296025e-01  2.5645007069387275e-03 2.5645007069387277e-01 4.6507932166164462e-01  2.5652883978088494e-03 2.5652883978088492e-01 4.6593084877255181e-01  2.5662747304791445e-03 2.5662747304791445e-01 4.6678295152673416e-01  2.5674568491270700e-03 2.5674568491270700e-01 4.6763498285139093e-01  2.5688313316989133e-03 2.5688313316989131e-01 4.6848629572646910e-01  2.5703942001734006e-03 2.5703942001734004e-01 4.6933624367612392e-01  2.5721409324988855e-03 2.5721409324988853e-01 4.7018418126269440e-01  2.5740664761466411e-03 2.5740664761466409e-01 4.7102946457200862e-01  2.5761652632785821e-03 2.5761652632785820e-01 4.7187145170940781e-01  2.5784312274376368e-03 2.5784312274376370e-01 4.7270950328344358e-01  2.5808578217223414e-03 2.5808578217223416e-01 4.7354298288623459e-01  2.5834380384414475e-03 2.5834380384414474e-01 4.7437125758647192e-01  2.5861644301019057e-03 2.5861644301019054e-01 4.7519369840297793e-01  2.5890291317447250e-03 2.5890291317447250e-01 4.7600968078664352e-01  2.5920238845086496e-03 2.5920238845086496e-01 4.7681858509242508e-01  2.5951400603737291e-03 2.5951400603737290e-01 4.7761979704915591e-01  2.5983686880131757e-03 2.5983686880131757e-01 4.7841270822708948e-01  2.6017004796768562e-03 2.6017004796768561e-01 4.7919671650265400e-01  2.6051258589735744e-03 2.6051258589735743e-01 4.7997122650822460e-01  2.6086349895783727e-03 2.6086349895783728e-01 4.8073565009277996e-01  2.6122178046570151e-03 2.6122178046570149e-01 4.8148940676416502e-01  2.6158640369941589e-03 2.6158640369941588e-01 4.8223192413077148e-01  2.6195632496880000e-03 2.6195632496880000e-01 4.8296263833217329e-01  2.6233048674056242e-03 2.6233048674056242e-01 4.8368099447584445e-01  2.6270782079659324e-03 2.6270782079659322e-01 4.8438644705170530e-01  2.6308725143015118e-03 2.6308725143015116e-01 4.8507846035341295e-01  2.6346769865194281e-03 2.6346769865194281e-01 4.8575650887144839e-01  2.6384808142337168e-03 2.6384808142337168e-01 4.8642007770744033e-01  2.6422732087749592e-03 2.6422732087749590e-01 4.8706866295493662e-01  2.6460434354140462e-03 2.6460434354140461e-01 4.8770177208885573e-01  2.6497808453453797e-03 2.6497808453453797e-01 4.8831892433539059e-01  2.6534749074048946e-03 2.6534749074048947e-01 4.8891965103499990e-01  2.6571152394913818e-03 2.6571152394913816e-01 4.8950349600818299e-01  2.6606916393943966e-03 2.6606916393943963e-01 4.9007001589093080e-01  2.6641941151323550e-03 2.6641941151323550e-01 4.9061878047204283e-01  2.6676129147036216e-03 2.6676129147036215e-01 4.9114937303018974e-01  2.6709385549596805e-03 2.6709385549596804e-01 4.9166139063911068e-01  2.6741618497676664e-03 2.6741618497676661e-01 4.9215444448073281e-01  2.6772739372016353e-03 2.6772739372016352e-01 4.9262816013840072e-01  2.6802663057277644e-03 2.6802663057277643e-01 4.9308217787754560e-01  2.6831308193819652e-03 2.6831308193819653e-01 4.9351615292526801e-01  2.6858597417059944e-03 2.6858597417059943e-01 4.9392975572458864e-01  2.6884457585730948e-03 2.6884457585730948e-01 4.9432267219404885e-01  2.6908819995893419e-03 2.6908819995893418e-01 4.9469460395526066e-01  2.6931620582831325e-03 2.6931620582831323e-01 4.9504526857028447e-01  2.6952800107650082e-03 2.6952800107650082e-01 4.9537439974960423e-01  2.6972304329619550e-03 2.6972304329619551e-01 4.9568174755482908e-01  2.6990084163422642e-03 2.6990084163422640e-01 4.9596707859126193e-01  2.7006095820260290e-03 2.7006095820260290e-01 4.9623017618100723e-01  2.7020300933422005e-03 2.7020300933422003e-01 4.9647084053296986e-01  2.7043165806443000e-03 2.7043165806442998e-01 4.9688415566766592e-01  2.7051776836347873e-03 2.7051776836347874e-01 4.9705649258516393e-01  2.7058483994832428e-03 2.7058483994832427e-01 4.9720576877089556e-01  2.7063277315137052e-03 2.7063277315137052e-01 4.9733187086679614e-01  2.7066152647628287e-03 2.7066152647628289e-01 4.9743470311265520e-01  2.7067111664509738e-03 2.7067111664509735e-01 4.9751418741898901e-01  2.7066161846846458e-03 2.7066161846846459e-01 4.9757026342662697e-01  2.7063316453946424e-03 2.7063316453946423e-01 4.9760288855217133e-01  2.7058594475227083e-03 2.7058594475227082e-01 4.9761203802057041e-01  2.7052020564657686e-03 2.7052020564657686e-01 4.9759770488391269e-01  2.7043624958069728e-03 2.7043624958069729e-01 4.9755990002650458e-01  2.7033443373544862e-03 2.7033443373544863e-01 4.9749865215678135e-01  2.7021516895172838e-03 2.7021516895172837e-01 4.9741400778553413e-01  2.7007891840577737e-03 2.7007891840577736e-01 4.9730603119071382e-01  2.6992619612525239e-03 2.6992619612525237e-01 4.9717480436813521e-01  2.6975756535222218e-03 2.6975756535222217e-01 4.9702042696927312e-01  2.6957363675798951e-03 2.6957363675798951e-01 4.9684301622642302e-01  2.6937506651240812e-03 2.6937506651240811e-01 4.9664270686253525e-01  2.6916255421819213e-03 2.6916255421819213e-01 4.9641965099004193e-01  2.6893684071200488e-03 2.6893684071200485e-01 4.9617401799444194e-01  2.6869870574227784e-03 2.6869870574227783e-01 4.9590599440582855e-01  2.6844896553005738e-03 2.6844896553005737e-01 4.9561578375780790e-01  2.6818847021911774e-03 2.6818847021911774e-01 4.9530360643249632e-01  2.6791810122269622e-03 2.6791810122269621e-01 4.9496969949092817e-01  2.6763876848386876e-03 2.6763876848386875e-01 4.9461431650014714e-01  2.6735140763782242e-03 2.6735140763782239e-01 4.9423772733235255e-01  2.6705697710666461e-03 2.6705697710666459e-01 4.9384021796298772e-01  2.6675645512483199e-03 2.6675645512483198e-01 4.9342209025520811e-01  2.6645083670499914e-03 2.6645083670499914e-01 4.9298366173172947e-01  2.6614113054974631e-03 2.6614113054974631e-01 4.9252526532807073e-01  2.6582835593002624e-03 2.6582835593002624e-01 4.9204724914388154e-01  2.6551353952886086e-03 2.6551353952886086e-01 4.9154997617706270e-01  2.6519771226619498e-03 2.6519771226619498e-01 4.9103382404993839e-01  2.6488190611008646e-03 2.6488190611008644e-01 4.9049918472077542e-01  2.6456715088881934e-03 2.6456715088881932e-01 4.8994646418862747e-01  2.6425447110649748e-03 2.6425447110649747e-01 4.8937608217955464e-01  2.6394488278348315e-03 2.6394488278348316e-01 4.8878847183474622e-01  2.6363939031826887e-03 2.6363939031826888e-01 4.8818407937811747e-01  2.6333898338762986e-03 2.6333898338762984e-01 4.8756336377575649e-01  2.6304463389466466e-03 2.6304463389466465e-01 4.8692679638841280e-01  2.6275729297512975e-03 2.6275729297512973e-01 4.8627486062080438e-01  2.6247788805929895e-03 2.6247788805929895e-01 4.8560805154118047e-01  2.6220732001923605e-03 2.6220732001923602e-01 4.8492687551752112e-01  2.6194646038857788e-03 2.6194646038857788e-01 4.8423184982202916e-01  2.6169614868183462e-03 2.6169614868183461e-01 4.8352350224802115e-01  2.6145718980739789e-03 2.6145718980739791e-01 4.8280237070576720e-01  2.6123035158805807e-03 2.6123035158805807e-01 4.8206900281069787e-01  2.6101636239980910e-03 2.6101636239980908e-01 4.8132395547598605e-01  2.6081590892512783e-03 2.6081590892512785e-01 4.8056779447361203e-01  2.6062963404623186e-03 2.6062963404623185e-01 4.7980109402841353e-01  2.6045813486025257e-03 2.6045813486025254e-01 4.7902443635797964e-01  2.6030196084589736e-03 2.6030196084589735e-01 4.7823841124477023e-01  2.6016161217260188e-03 2.6016161217260186e-01 4.7744361558847220e-01  2.6003753815977038e-03 2.6003753815977038e-01 4.7664065294084768e-01  2.5993013589788966e-03 2.5993013589788966e-01 4.7583013306647098e-01  2.5983974902380738e-03 2.5983974902380735e-01 4.7501267145786985e-01  2.5971112255625374e-03 2.5971112255625373e-01 4.7335941091841360e-01  2.5967329430694719e-03 2.5967329430694719e-01 4.7252486744724559e-01  2.5965330286938410e-03 2.5965330286938409e-01 4.7168589221532170e-01  2.5965121215927129e-03 2.5965121215927128e-01 4.7084312232896353e-01  2.5966702886075456e-03 2.5966702886075455e-01 4.6999719777658766e-01  2.5970070240593254e-03 2.5970070240593252e-01 4.6914876094035124e-01  2.5975212513031265e-03 2.5975212513031265e-01 4.6829845611166349e-01  2.5982113260383920e-03 2.5982113260383921e-01 4.6744692900075757e-01  2.5990750413660965e-03 2.5990750413660962e-01 4.6659482624541820e-01  2.6001096345761340e-03 2.6001096345761338e-01 4.6574279491989884e-01  2.6013117956431818e-03 2.6013117956431819e-01 4.6489148204426672e-01  2.6026776774057130e-03 2.6026776774057131e-01 4.6404153409361459e-01  2.6042029073936259e-03 2.6042029073936257e-01 4.6319359650950970e-01  2.6058826012925955e-03 2.6058826012925956e-01 4.6234831320132630e-01  2.6077113779560319e-03 2.6077113779560318e-01 4.6150632606535130e-01  2.6096833759672554e-03 2.6096833759672555e-01 4.6066827449342151e-01  2.6117922716666969e-03 2.6117922716666969e-01 4.5983479489060597e-01  2.6140312986113034e-03 2.6140312986113035e-01 4.5900652019118371e-01  2.6163932684135738e-03 2.6163932684135738e-01 4.5818407937267769e-01  2.6188705928398949e-03 2.6188705928398948e-01 4.5736809698820252e-01  2.6214553071984338e-03 2.6214553071984337e-01 4.5655919268235290e-01  2.6241390948448995e-03 2.6241390948448995e-01 4.5575798072678420e-01  2.6269133128133428e-03 2.6269133128133426e-01 4.5496506954803345e-01  2.6297690184177882e-03 2.6297690184177880e-01 4.5418106127177771e-01  2.6326969968014282e-03 2.6326969968014280e-01 4.5340655126571611e-01  2.6356877893551111e-03 2.6356877893551112e-01 4.5264212768158008e-01  2.6387317228722816e-03 2.6387317228722817e-01 4.5188837100917673e-01  2.6418189393452541e-03 2.6418189393452540e-01 4.5114585364283494e-01  2.6449394263888589e-03 2.6449394263888587e-01 4.5041513944164346e-01  2.6480830481502987e-03 2.6480830481502987e-01 4.4969678329700002e-01  2.6512395765506572e-03 2.6512395765506569e-01 4.4899133072086123e-01  2.6543987229080291e-03 2.6543987229080290e-01 4.4829931742148521e-01  2.6575501696828379e-03 2.6575501696828380e-01 4.4762126890443854e-01  2.6606836023868319e-03 2.6606836023868319e-01 4.4695770006787466e-01  2.6637887414262497e-03 2.6637887414262496e-01 4.4630911482132896e-01  2.6668553739801109e-03 2.6668553739801110e-01 4.4567600568624810e-01  2.6698733855252594e-03 2.6698733855252593e-01 4.4505885343986051e-01  2.6728327912145388e-03 2.6728327912145389e-01 4.4445812673914115e-01  2.6757237668166112e-03 2.6757237668166112e-01 4.4387428176624188e-01  2.6785366791734428e-03 2.6785366791734427e-01 4.4330776188485027e-01  2.6812621161015800e-03 2.6812621161015798e-01 4.4275899730395257e-01  2.6838909156608249e-03 2.6838909156608248e-01 4.4222840474632624e-01  2.6864141946192992e-03 2.6864141946192993e-01 4.4171638713843397e-01  2.6888233761552332e-03 2.6888233761552333e-01 4.4122333329622943e-01  2.6911102165557217e-03 2.6911102165557216e-01 4.4074961763852111e-01  2.6932668309728588e-03 2.6932668309728586e-01 4.4029559989941819e-01  2.6952857181002060e-03 2.6952857181002060e-01 4.3986162485157587e-01  2.6971597836362615e-03 2.6971597836362615e-01 4.3944802205305056e-01  2.6988823626215041e-03 2.6988823626215042e-01 4.3905510558384925e-01  2.7004472403486554e-03 2.7004472403486551e-01 4.3868317382299860e-01  2.7018486720459651e-03 2.7018486720459650e-01 4.3833250920775219e-01  2.7030814010372169e-03 2.7030814010372167e-01 4.3800337802831540e-01  2.7041406754771554e-03 2.7041406754771552e-01 4.3769603022329051e-01  2.7050222635589894e-03 2.7050222635589893e-01 4.3741069918660097e-01  2.7057224671157955e-03 2.7057224671157953e-01 4.3714760159668697e-01  2.7062381336495915e-03 2.7062381336495916e-01 4.3690693724460061e-01  2.6864122030226057e-03 2.6864122030226056e-01 4.4255339791161841e-01  2.6278836671427665e-03 2.6278836671427663e-01 4.8495817893783411e-01  2.6400192054424850e-03 2.6400192054424848e-01 4.4170318725785707e-01  2.6035163405157152e-03 2.6035163405157152e-01 4.7441194475809800e-01  2.7064575567096218e-03 2.7064575567096216e-01 4.3751132969867873e-01  2.6739783116309567e-03 2.6739783116309568e-01 4.9130600765209881e-01  2.5963104228829427e-03 2.5963104228829426e-01 4.4922541225556822e-01  2.5706538325868328e-03 2.5706538325868328e-01 4.5977273386399736e-01  2.7038989261127439e-03 2.7038989261127439e-01 4.9604407119771532e-01  2.6252272520346288e-03 2.6252272520346287e-01 4.8293447842161441e-01  2.6612433312405781e-03 2.6612433312405781e-01 4.4772097948068379e-01  2.6592440198284491e-03 2.6592440198284489e-01 4.9121456413582038e-01  2.6435302848773312e-03 2.6435302848773312e-01 4.8636134584235474e-01  2.6436886716641999e-03 2.6436886716642000e-01 4.5183666755600210e-01  2.6018613157206450e-03 2.6018613157206449e-01 4.7774936244923039e-01  2.6617796385076430e-03 2.6617796385076431e-01 4.3922552097720780e-01  2.6793994875265932e-03 2.6793994875265931e-01 4.9416864210022321e-01  2.6954249579667238e-03 2.6954249579667239e-01 4.9605686368871760e-01  2.6832709858797404e-03 2.6832709858797404e-01 4.3740565595062375e-01  2.6246656697138156e-03 2.6246656697138154e-01 4.5713652114395842e-01  2.5847409617049716e-03 2.5847409617049716e-01 4.7301148480913913e-01  2.6101859621113087e-03 2.6101859621113088e-01 4.6286446532953918e-01  2.6931092809801024e-03 2.6931092809801022e-01 4.3674979510901030e-01  2.7039765206855961e-03 2.7039765206855959e-01 4.9674702162735762e-01  2.5746031397757135e-03 2.5746031397757135e-01 4.6811899583100464e-01  2.6048800867098294e-03 2.6048800867098293e-01 4.6700730334564550e-01  2.7019564620628734e-03 2.7019564620628733e-01 4.3654011299180678e-01  2.6986419722782062e-03 2.6986419722782062e-01 4.3994114499503312e-01  2.6141040149445173e-03 2.6141040149445172e-01 4.8060559933247221e-01  2.6903464935545507e-03 2.6903464935545507e-01 4.9384465601176036e-01  2.5814017263609220e-03 2.5814017263609218e-01 4.5351543587919557e-01  2.6192425204774141e-03 2.6192425204774139e-01 4.4469328929252405e-01  2.7066827829004513e-03 2.7066827829004514e-01 4.9686816954918872e-01  2.5704499273352583e-03 2.5704499273352582e-01 4.6475917029140285e-01  2.6021455155250178e-03 2.6021455155250178e-01 4.7033110471558087e-01  2.7057014884606352e-03 2.7057014884606351e-01 4.3672708293858026e-01  2.6571806032701047e-03 2.6571806032701045e-01 4.8870973814218432e-01  2.6412045918845456e-03 2.6412045918845456e-01 4.8800152299006094e-01  2.7038663638474457e-03 2.7038663638474458e-01 4.3854319902888705e-01  2.6760521402874621e-03 2.6760521402874621e-01 4.4473263299651689e-01  2.6078095658590107e-03 2.6078095658590106e-01 4.7747597809195663e-01  2.6983165542618327e-03 2.6983165542618326e-01 4.9510368242819819e-01  2.5748300232890844e-03 2.5748300232890842e-01 4.5649859961650696e-01  2.6718276475401598e-03 2.6718276475401598e-01 4.3844225216812899e-01  2.5889375128192961e-03 2.5889375128192960e-01 4.5136139525365093e-01  2.7061571483993213e-03 2.7061571483993213e-01 4.9663433321705686e-01  2.6826541014312757e-03 2.6826541014312755e-01 4.9267779762122010e-01  2.5705809730751377e-03 2.5705809730751378e-01 4.6224292577543463e-01  2.6149399162294492e-03 2.6149399162294490e-01 4.8079415058172931e-01  2.6931718013256290e-03 2.6931718013256289e-01 4.4117589727034351e-01  2.6298589808412317e-03 2.6298589808412315e-01 4.4325437102367665e-01  2.6356473561040634e-03 2.6356473561040633e-01 4.5408186767399839e-01  2.6869023429308180e-03 2.6869023429308181e-01 4.9506701917518919e-01  2.6175416438921251e-03 2.6175416438921251e-01 4.5952720275533043e-01  2.6203873954165186e-03 2.6203873954165186e-01 4.8276974558096025e-01  2.6087076555019574e-03 2.6087076555019573e-01 4.4662331829770557e-01  2.6526213782