<?xml version="1.0"?>
<VTKFile type="UnstructuredGrid"  version="0.1"  >
<UnstructuredGrid>
<Piece  NumberOfPoints="4940" NumberOfCells="9650">
<Points>
<DataArray  type="Float64"  NumberOfComponents="3"  format="ascii">500 250 0  0 250 0  250 500 0  250 0 0  256.8885856082646 499.9050767557906 0  263.7719401218049 499.6203791065173 0  270.6448364229772 499.1461232471188 0  277.5020553257866 498.4826693209355 0  284.3383895508592 497.6305211460281 0  291.1486476865662 496.5903258312597 0  297.9276581259182 495.3628732847843 0  304.6702729675493 493.9490956196674 0  311.3713719748657 492.3500664368026 0  318.0258664141369 490.5670000199653 0  324.6287029687753 488.6012504015818 0  331.1748675330201 486.4543103455647 0  337.6593890460416 484.1278102064655 0  344.0773432429536 481.6235166997244 0  350.4238564271474 478.9433315480048 0  356.694109139292 476.0892900492477 0  362.88333985546 473.0635595140469 0  368.9868485575419 469.8684376402048 0  375.0000003153078 466.5063507640667 0  380.9182288257928 462.9798520074548 0  386.7370398729688 459.2916193419558 0  392.4520147244077 455.444453565817 0  398.0588135356345 451.4412761437442 0  403.5531785622926 447.285127045646 0  408.9309374414144 442.9791624087773 0  414.1880064015299 438.5266521049243 0  419.3203932989752 433.9309773069245 0  424.324200661095 429.1956279150535 0  429.1956286596235 424.3241998957182 0  433.9309780058756 419.3203925397119 0  438.5266527445345 414.1880056671062 0  442.9791630130591 408.9309367076756 0  447.2851276060475 403.5531778422888 0  451.4412766621026 398.0588128303826 0  455.4444540361634 392.4520140460735 0  459.2916197786263 386.7370392045948 0  462.9798524073514 380.9182281752347 0  466.5063511234856 374.9999996927758 0  469.8684379657123 368.9868479560565 0  473.0635598144817 362.8833392617846 0  476.0892903190255 356.6941085676214 0  478.9433317963513 350.4238558609745 0  481.6235169154735 344.0773427117675 0  484.12781039012 337.6593885555221 0  486.4543105028062 331.1748670749914 0  488.601250531677 324.6287025528375 0  490.5670001317469 318.0258660188321 0  492.3500665291326 311.3713716102628 0  493.949095695951 304.6702726271575 0  495.3628733416623 297.9276578347343 0  496.5903258712341 291.1486474470129 0  497.6305211749058 284.3383893426084 0  498.4826693388848 277.502055163614 0  499.1461232580606 270.6448362909296 0  499.6203791109319 263.7719400417897 0  499.9050767571306 256.8885855596534 0  499.9050767559877 243.1114143988867 0  499.6203791069493 236.2280598860241 0  499.1461232485393 229.3551635941651 0  498.4826693235677 222.4979446979962 0  497.6305211491849 215.6616104719064 0  496.5903258357701 208.8513523404629 0  495.3628732906988 202.0723419043604 0  493.9490956264813 195.3297270628552 0  492.3500664487791 188.6286280724281 0  490.5670000344809 181.9741336371959 0  488.6012504175981 175.3712970824318 0  486.4543103623226 168.8251325157939 0  484.1278102222298 162.3406109960628 0  481.6235167152198 155.9226567951971 0  478.9433315621651 149.5761436051346 0  476.0892900516498 143.3058908657982 0  473.063559513628 137.1166601437124 0  469.8684376406648 131.0131514433083 0  466.5063507675389 124.9999996907064 0  462.9798520124137 119.0817711822745 0  459.2916193464549 113.2629601339176 0  455.4444535642773 107.5479852733717 0  451.4412761528674 101.9411864767781 0  447.2851270583545 96.44682145403524 0  442.9791624165781 91.06906256805769 0  438.5266521117469 85.81199360630404 0  433.9309773156125 80.67960671046254 0  429.1956279150353 75.67579933888632 0  424.3241998888952 70.80437133373906 0  419.3203925223282 66.06902197812161 0  414.1880056411937 61.47334723289828 0  408.9309366751728 57.0208369601728 0  403.5531778009394 52.71487236176898 0  398.058812796452 48.55872331295853 0  392.4520140187753 44.55554594490843 0  386.7370391799677 40.70838020528396 0  380.9182281475119 37.02014757560744 0  374.9999996718656 33.49364886444181 0  368.9868479340393 30.13156202237255 0  362.8833392380029 26.93644017348339 0  356.6941085456942 23.91070967062674 0  350.4238558420009 21.0566681953261 0  344.0773426899492 18.37648307566465 0  337.6593885328982 15.87218960140942 0  331.1748670549786 13.54568949032341 0  324.6287025315056 11.39874946165088 0  318.0258660010876 9.432999863235466 0  311.3713716017894 7.649933468721599 0  304.6702726190621 6.050904302234756 0  297.9276578269805 4.637126656823085 0  291.148647441857 3.409674127905504 0  284.3383893425031 2.369478825079682 0  277.502055159398 1.517330660648639 0  270.6448362875833 0.853876741662134 0  263.7719400401456 0.3796208889774277 0  256.8885855592052 0.09492324285704967 0  243.1114143979462 0.09492324403817065 0  236.2280598850882 0.3796208931023841 0  229.3551635938215 0.8538767514891958 0  222.4979446968584 1.517330676558146 0  215.6616104703111 2.369478851036291 0  208.8513523382973 3.409674164591252 0  202.0723419066374 4.637126708856528 0  195.3297270659513 6.050904372824903 0  188.628628074828 7.649933550613184 0  181.9741336377093 9.432999965373938 0  175.3712970793675 11.39874958336037 0  168.8251325057572 13.54568964112298 0  162.340610986655 15.87218978129263 0  155.9226567874317 18.37648328793418 0  149.576143602509 21.05666843898663 0  143.3058908718157 23.91070994551046 0  137.1166601505524 26.93644048291054 0  131.0131514451933 30.13156235831508 0  124.9999996848412 33.49364923584736 0  119.0817711715717 37.0201479941652 0  113.2629601211624 40.70838066187849 0  107.5479852622251 44.55554644345162 0  101.9411864693332 48.55872385260452 0  96.44682143286516 52.71487295812284 0  91.06906254351222 57.02083760363669 0  85.81199358272519 61.4733479087879 0  80.67960667988106 66.06902271253972 0  75.67579930062769 70.80437212218331 0  70.80437129287643 75.67580015310926 0  66.06902193673014 80.67960752263491 0  61.47334718684866 85.81199441168215 0  57.02083692524275 91.0690633672404 0  52.71487232786438 96.44682224262129 0  48.55872328070024 101.941187247437 0  44.55554591578033 107.5479860232332 0  40.7083801742321 113.2629608675606 0  37.02014754791168 119.0817718975441 0  33.49364883372994 125.000000381329 0  30.13156199866361 131.0131521097709 0  26.9364401549829 137.1166607985551 0  23.91070965524918 143.3058914868915 0  21.05666818346614 149.576144185037 0  18.37648306853811 155.9226573275967 0  15.8721895918909 162.3406114925245 0  13.54568948170046 168.8251329701392 0  11.39874945301878 175.3712974960928 0  9.432999857087736 181.9741340206533 0  7.649933466342702 188.6286284076045 0  6.050904301250966 195.3297273853278 0  4.637126656808988 202.0723421730917 0  3.409674127767772 208.8513525589684 0  2.369478824521138 215.6616106615248 0  1.517330660909465 222.4979448382452 0  0.8538767414496533 229.355163714981 0  0.3796208887135322 236.2280599646376 0  0.09492324266324204 243.1114144478261 0  0.0949232442452228 256.8885856095658 0  0.3796208935834784 263.7719401236316 0  0.8538767530323526 270.6448364248016 0  1.517330679476544 277.5020553295092 0  2.369478854618649 284.3383895555228 0  3.409674170191892 291.1486476952655 0  4.6371267162381 297.9276581311522 0  6.050904381420935 304.6702729724059 0  7.649933562385399 311.3713719716595 0  9.43299997979841 318.0258664133013 0  11.3987495994252 324.6287029719946 0  13.54568965885832 331.174867545904 0  15.87218979367188 337.6593890464085 0  18.37648329843151 344.0773432384132 0  21.05666844777872 350.423856417535 0  23.91070995156048 356.6941091410045 0  26.93644048988043 362.8833398632205 0  30.13156235982007 368.9868485575877 0  33.49364924138357 375.0000003247478 0  37.0201480006036 380.9182288389023 0  40.70838066758398 386.7370398875706 0  44.55554644477201 392.4520147396792 0  48.55872386086904 398.0588135419111 0  52.71487295981296 403.5531785693063 0  57.02083760525949 408.9309374584583 0  61.47334790862246 414.1880064170849 0  66.06902271205095 419.320393319588 0  70.80437211216579 424.3242006890749 0  75.67580013809859 429.195628692521 0  80.6796075127923 433.930978054209 0  85.81199439754931 438.5266528008431 0  91.06906334717917 442.9791630582355 0  96.44682221438322 447.2851276501571 0  101.9411872243843 451.441276702356 0  107.5479859945825 455.4444540643537 0  113.2629608446994 459.2916198108319 0  119.0817718768376 462.9798524393601 0  125.0000003647644 466.5063511567065 0  131.0131521012763 469.8684379967393 0  137.1166607840049 473.0635598376539 0  143.3058914748804 476.0892903390826 0  149.5761441732679 478.9433318113714 0  155.9226573130112 481.6235169255377 0  162.3406114779862 484.1278104026658 0  168.8251329570439 486.4543105138039 0  175.3712974805475 488.601250542119 0  181.9741340135204 490.5670001408953 0  188.6286284005059 492.3500665318597 0  195.3297273788229 493.9490956972913 0  202.0723421640089 495.3628733414168 0  208.8513525529672 496.5903258712308 0  215.6616106544547 497.6305211744985 0  222.4979448327038 498.4826693384772 0  229.3551637102845 499.1461232581612 0  236.2280599621369 499.6203791111485 0  243.1114144470173 499.9050767573145 0  155.2373389820306 474.8197567317462 0  25.36256300907667 153.9152755065208 0  432.3709625126712 412.6214396304305 0  6.013151705810699 246.637913163471 0  246.6379131630491 493.986848294322 0  338.6995838441862 22.68244767887072 0  477.3175523131281 338.6995838660569 0  493.9868482700757 246.6379131399102 0  246.6201155078769 6.218451882810491 0  417.6179310263282 72.7156044707053 0  102.2232990934413 445.0100869616822 0  63.66330858966404 92.20354579482142 0  391.3105220491464 50.73522820883105 0  72.79295043967942 418.0702734974704 0  448.290574428537 108.25674339002 0  402.4604651193511 440.7462829841712 0  97.55317348421397 59.11376320116034 0  136.7376477664901 33.58246472647134 0  363.3288394375288 465.6947312928271 0  44.0678766556007 381.0860953771871 0  469.6905266180034 142.3890690100806 0  22.68244791668644 338.6995843487432 0  338.699584349159 477.317552078365 0  173.389488083762 18.6681884918202 0  483.4809734778481 179.7121987795732 0  13.50237455842738 306.4709525540879 0  305.9825168523021 487.24416992
[...]
<PointData  Vectors="f_12"> 
<DataArray  type="Float64"  Name="f_12"  NumberOfComponents="3" format="ascii">5.2143180928759980e-01 1.7664551292906105e-01 5.9240723268488682e-01  4.9833328319534947e-01 1.6119255057247547e-01 4.9354311421695851e-01  5.3307337064531157e-01 1.9744992705072095e-01 6.2906927777949184e-01  5.5641356612953385e-01 2.6764834698639250e-01 6.7289671532448481e-01  5.3326824704979692e-01 1.9786524228101712e-01 6.2960957675476326e-01  5.3344668907217241e-01 1.9824757180656319e-01 6.3010204615887422e-01  5.3361779092209383e-01 1.9861596214602187e-01 6.3057229879125964e-01  5.3377456754494035e-01 1.9895500742230240e-01 6.3100151821818684e-01  5.3392010970783643e-01 1.9927111617641266e-01 6.3139852322580714e-01  5.3405402839060545e-01 1.9956309526124583e-01 6.3176256285629229e-01  5.3417645811709125e-01 1.9983096924384200e-01 6.3209435037353878e-01  5.3428810348727951e-01 2.0007605643064943e-01 6.3239603474205131e-01  5.3438822168974665e-01 2.0029650381268346e-01 6.3266583840616342e-01  5.3447624542894423e-01 2.0049084538791906e-01 6.3290251445515633e-01  5.3454673025217092e-01 2.0064684209698450e-01 6.3309162575475242e-01  5.3461753306610627e-01 2.0080383914651162e-01 6.3328126048284950e-01  5.3466075511336564e-01 2.0089991703195970e-01 6.3339681697905892e-01  5.3470191868115491e-01 2.0099153235801653e-01 6.3350675602952145e-01  5.3472891760966523e-01 2.0105176859409052e-01 6.3357875967759214e-01  5.3474492984442101e-01 2.0108760958754110e-01 6.3362139552027952e-01  5.3475085230131147e-01 2.0110101642372283e-01 6.3363705366398848e-01  5.3473904708890962e-01 2.0107502114182779e-01 6.3360542316474899e-01  5.3471423201970580e-01 2.0102011944231596e-01 6.3353906094867729e-01  5.3468357307340064e-01 2.0095227583367342e-01 6.3345699286211921e-01  5.3463962733730774e-01 2.0085501453734575e-01 6.3333933390558605e-01  5.3457924384293642e-01 2.0072150551165424e-01 6.3317747817326264e-01  5.3450136552249838e-01 2.0054954446926027e-01 6.3296842652737673e-01  5.3441777561734927e-01 2.0036535046989426e-01 6.3274359881640441e-01  5.3432150588306471e-01 2.0015371293930187e-01 6.3248409175398268e-01  5.3420470786931973e-01 1.9989762323608107e-01 6.3216847861102876e-01  5.3407958325448524e-01 1.9962416707309524e-01 6.3182938694757051e-01  5.3393866246535138e-01 1.9931731931361152e-01 6.3144620794613893e-01  5.3378302385711296e-01 1.9897973050088916e-01 6.3102158441358491e-01  5.3361644592135571e-01 1.9861999503380498e-01 6.3056532671616239e-01  5.3342813594980154e-01 1.9821530101914409e-01 6.3004733065769702e-01  5.3322648386334104e-01 1.9778420962249638e-01 6.2949016112344081e-01  5.3301518186745689e-01 1.9733503421762735e-01 6.2890343156409401e-01  5.3278218958639656e-01 1.9684282250852467e-01 6.2825308931797175e-01  5.3252665393652110e-01 1.9630666292606871e-01 6.2753582588075063e-01  5.3225917389628186e-01 1.9574948917087334e-01 6.2678051960165959e-01  5.3198018132152047e-01 1.9517279233531229e-01 6.2598774122084677e-01  5.3167800062827009e-01 1.9455331849011726e-01 6.2512338326768224e-01  5.3135247240718242e-01 1.9389178122355918e-01 6.2418576401316128e-01  5.3101144621876462e-01 1.9320544311377685e-01 6.2319618800463839e-01  5.3064807463632568e-01 1.9248157913926578e-01 6.2213354438217217e-01  5.3026411989331468e-01 1.9172488458231879e-01 6.2100157830211311e-01  5.2986009287731251e-01 1.9093780106824157e-01 6.1980027401743809e-01  5.2943640210893994e-01 1.9012244874428544e-01 6.1852959276932218e-01  5.2898110927073327e-01 1.8925798214928069e-01 6.1715101579411835e-01  5.2850594352479741e-01 1.8836806881654014e-01 6.1569873829374144e-01  5.2800659742396672e-01 1.8744717766461177e-01 6.1415686807358161e-01  5.2748166671027708e-01 1.8649397591682329e-01 6.1251944698652738e-01  5.2693201605196704e-01 1.8551297741448011e-01 6.1078623385796504e-01  5.2634968840262220e-01 1.8449224628713029e-01 6.0892951710789234e-01  5.2574091502175890e-01 1.8344572878462781e-01 6.0696582989782355e-01  5.2510622292369191e-01 1.8237718271944625e-01 6.0489403480474535e-01  5.2443788172159433e-01 1.8127661410252166e-01 6.0268523859587209e-01  5.2373956688456491e-01 1.8015374608557161e-01 6.0034814544504456e-01  5.2301251821722949e-01 1.7901359111222753e-01 5.9788215713405746e-01  5.2226371518219938e-01 1.7786774920603496e-01 5.9531364603290504e-01  5.2061131314632392e-01 1.7546559537621817e-01 5.8950708660702567e-01  5.1974717047030050e-01 1.7427011246048216e-01 5.8640597329291755e-01  5.1885073005025273e-01 1.7307664290535166e-01 5.8314025292046689e-01  5.1790774731048683e-01 1.7187131716332049e-01 5.7964990939535410e-01  5.1693025278891125e-01 1.7067901360337429e-01 5.7597441598624022e-01  5.1591637196184725e-01 1.6950142875565449e-01 5.7209862538981271e-01  5.1486411652010966e-01 1.6834850424315717e-01 5.6800705802007223e-01  5.1377310075743921e-01 1.6722578088905107e-01 5.6369027872709243e-01  5.1264677564801098e-01 1.6614724691142480e-01 5.5915344243188625e-01  5.1148637562180199e-01 1.6512442604626287e-01 5.5439291106043220e-01  5.1028167489497867e-01 1.6416018877947502e-01 5.4935516686319474e-01  5.0904996886050158e-01 1.6328181170628980e-01 5.4410363018251529e-01  5.0778233726790722e-01 1.6249477893614514e-01 5.3858933904244799e-01  5.0647890716692345e-01 1.6181748487663392e-01 5.3279964882651265e-01  5.0514530896763410e-01 1.6127055325044440e-01 5.2674592638166196e-01  5.0378691575366341e-01 1.6087744283456198e-01 5.2043894422803938e-01  5.0240656107090631e-01 1.6065963019004587e-01 5.1387715606578566e-01  5.0100839608341508e-01 1.6064538223483929e-01 5.0706386707196183e-01  4.9959529972513633e-01 1.6086403932735316e-01 4.9999501553977888e-01  4.9817612361206642e-01 1.6134740543960935e-01 4.9269517005651087e-01  4.9676758836172680e-01 1.6212281735294445e-01 4.8523307625561179e-01  4.9536063609018471e-01 1.6325452611393973e-01 4.7752854640338599e-01  4.9397826167612918e-01 1.6476932836514924e-01 4.6968442855131565e-01  4.9263124497494493e-01 1.6671158268022548e-01 4.6173397308511871e-01  4.9133493481214063e-01 1.6913281181941495e-01 4.5373091729563886e-01  4.9010732058271045e-01 1.7207338294170052e-01 4.4575126876888005e-01  4.8896578576832900e-01 1.7556959705774741e-01 4.3787155591899496e-01  4.8792969925266810e-01 1.7964415948956941e-01 4.3018794720706965e-01  4.8701413403946542e-01 1.8430276215033009e-01 4.2278282932401856e-01  4.8623722777639772e-01 1.8952854937142333e-01 4.1576985863725735e-01  4.8560885814414284e-01 1.9525725374077540e-01 4.0924340795827546e-01  4.8513385838126843e-01 2.0138828572426987e-01 4.0329088973350952e-01  4.8481139503626042e-01 2.0775113608216214e-01 3.9800873991306512e-01  4.8462631279463159e-01 2.1421595159286366e-01 3.9339115825955678e-01  4.8456008934979727e-01 2.2053776761419452e-01 3.8947977957679564e-01  4.8458565493010769e-01 2.2635791063104815e-01 3.8633502384477386e-01  4.8466824527501001e-01 2.3146158592327692e-01 3.8389419184886381e-01  4.8477593119715473e-01 2.3561917621705963e-01 3.8212104260296287e-01  4.8486961228055897e-01 2.3835647644274272e-01 3.8107970740247055e-01  4.8492521243663284e-01 2.3948640915711977e-01 3.8075168818202393e-01  4.8493761214359421e-01 2.3899103718081061e-01 3.8112336051067813e-01  4.8489367821349089e-01 2.3618669308952234e-01 3.8251324301278339e-01  4.8483638979259913e-01 2.3118872271667559e-01 3.8508214770850840e-01  4.8483714775838693e-01 2.2372049907335392e-01 3.8936336674390154e-01  4.8505191502769962e-01 2.1400467310155136e-01 3.9605471560039290e-01  4.8572928235951329e-01 2.0243103953443778e-01 4.0624996338611552e-01  4.8722380928674286e-01 1.9008354444537520e-01 4.2118465953308087e-01  4.8996532302140522e-01 1.7853203898038880e-01 4.4212479820329176e-01  4.9443767897581481e-01 1.6968195263797761e-01 4.7020786903113587e-01  5.0090375736002202e-01 1.6558388168720875e-01 5.0489642377264998e-01  5.0922572868245919e-01 1.6778265250182858e-01 5.4361554050352390e-01  5.1877275028565040e-01 1.7695570059032234e-01 5.8178688703684622e-01  5.2855173566178426e-01 1.9203272568729307e-01 6.1480199000690228e-01  5.3764377251551065e-01 2.1097955944026184e-01 6.4004773540544824e-01  5.4538976155109309e-01 2.3113615354106454e-01 6.5700475248410639e-01  5.5162550848510239e-01 2.5048297685356608e-01 6.6735167332918166e-01  5.5986041664612407e-01 2.8167777796474691e-01 6.7535385719112384e-01  5.6281794123318440e-01 2.9462846185996822e-01 6.7649283419816586e-01  5.6464898633909255e-01 3.0370573557574582e-01 6.7626537910904039e-01  5.6602247748691836e-01 3.1088503006265211e-01 6.7580567589253804e-01  5.6699177520596078e-01 3.1620368297018880e-01 6.7525067208257994e-01  5.6760010605841482e-01 3.1967556032667244e-01 6.7479172255758824e-01  5.6791565179999537e-01 3.2151924555766337e-01 6.7451716926992544e-01  5.6796601457329354e-01 3.2181998461995670e-01 6.7446882643074035e-01  5.6775483186206555e-01 3.2058585182693683e-01 6.7465343264111710e-01  5.6731441677939864e-01 3.1804967676202472e-01 6.7500663070206746e-01  5.6651235662724841e-01 3.1355600705002651e-01 6.7554155997259369e-01  5.6537111752645475e-01 3.0745555899927685e-01 6.7605298883144049e-01  5.6381443518289198e-01 2.9958183030494251e-01 6.7636702413040084e-01  5.6177181677966481e-01 2.8992791496690112e-01 6.7616714856100324e-01  5.5905517932783688e-01 2.7810964733323479e-01 6.7497382762520164e-01  5.5550159194988391e-01 2.6407628791213250e-01 6.7206172184336754e-01  5.5100191757420780e-01 2.4820610380486902e-01 6.6651793945290128e-01  5.4545533039381955e-01 2.3101796703802022e-01 6.5721516614567355e-01  5.3884189151414907e-01 2.1342009375333570e-01 6.4301180789034929e-01  5.3132614211535945e-01 1.9674469205988393e-01 6.2319734739145993e-01  5.2325456967937545e-01 1.8252122334731025e-01 5.9779482771618586e-01  5.1525670794701894e-01 1.7203087844170084e-01 5.6862726416567266e-01  5.0796546376318963e-01 1.6591946134005847e-01 5.3841092154553427e-01  5.0175609440984770e-01 1.6395882931370259e-01 5.0965096297551415e-01  4.9677960473125798e-01 1.6540890027778091e-01 4.8412063188934845e-01  4.9301754074582799e-01 1.6930226144559204e-01 4.6279818962160935e-01  4.9029148095444608e-01 1.7464781024009982e-01 4.4569032717655116e-01  4.8839190650139602e-01 1.8057599944714017e-01 4.3241193870930322e-01  4.8710019143347838e-01 1.8646988226765457e-01 4.2227614778174399e-01  4.8624157380429783e-01 1.9188165181375919e-01 4.1466806483955027e-01  4.8568137529237110e-01 1.9655053394973679e-01 4.0904632846609940e-01  4.8532462191582115e-01 2.0027824463185312e-01 4.0502923209037822e-01  4.8510206334300898e-01 2.0303132431720122e-01 4.0227392526931866e-01  4.8497342270974320e-01 2.0477084263902279e-01 4.0058997660831214e-01  4.8490389979894727e-01 2.0567849950280187e-01 3.9969157183589687e-01  4.8488492627811774e-01 2.0567470681288988e-01 3.9957752800620383e-01  4.8491049734028413e-01 2.0485018288272222e-01 4.0016421152966258e-01  4.8498220772331302e-01 2.0329259496301236e-01 4.0141010157328355e-01  4.8510585107166643e-01 2.0110637829887099e-01 4.0328586521460236e-01  4.8529018708871841e-01 1.9841824249986353e-01 4.0576557288331466e-01  4.8553887604331175e-01 1.9541795233150552e-01 4.0876073193713891e-01  4.8586062524949097e-01 1.9220468165201443e-01 4.1225960922651955e-01  4.8626799488124034e-01 1.8884180014623994e-01 4.1629119104633328e-01  4.8675466990474303e-01 1.8550489297016021e-01 4.2072086322559749e-01  4.8732239503731350e-01 1.8226826021893994e-01 4.2551345034024340e-01  4.8797012385852606e-01 1.7918236650833502e-01 4.3063179796598272e-01  4.8869844284288405e-01 1.7628063914048414e-01 4.3605670490225951e-01  4.8948513136911459e-01 1.7366368177703165e-01 4.4161206571793943e-01  4.9033854376736891e-01 1.7128287383544005e-01 4.4736557269697103e-01  4.9123726269679469e-01 1.6917705729771670e-01 4.5317943724569110e-01  4.9218882199673525e-01 1.6732884710516041e-01 4.5910120453148867e-01  4.9316952988321866e-01 1.6574144232718296e-01 4.6500227202439304e-01  4.9417347704901160e-01 1.6440787189981013e-01 4.7085565701642040e-01  4.9519805690413621e-01 1.6330211339201323e-01 4.7666026503424203e-01  4.9623790331209860e-01 1.6240850033558774e-01 4.8239645281415355e-01  4.9728369368222708e-01 1.6171108044180529e-01 4.8802435514992681e-01  4.9938117648783015e-01 1.6083677033068680e-01 4.9893380622704014e-01  5.0042212329170710e-01 1.6062894221001142e-01 5.0417866175624526e-01  5.0145904291887722e-01 1.6055436025399483e-01 5.0930139110955186e-01  5.0248400042480035e-01 1.6059905921506626e-01 5.1427017157118071e-01  5.0349636652442542e-01 1.6075129712891567e-01 5.1909017518214551e-01  5.0449481954070918e-01 1.6099965980073461e-01 5.2376207989382229e-01  5.0547778924192799e-01 1.6133419728490025e-01 5.2828501745199496e-01  5.0644378103671506e-01 1.6174500297836236e-01 5.3265827389631104e-01  5.0739239074505937e-01 1.6222404424113598e-01 5.3688586928550530e-01  5.0832267748534110e-01 1.6276337809347974e-01 5.4096886102222130e-01  5.0923387541980980e-01 1.6335637131675421e-01 5.4490904840674537e-01  5.1012394435810826e-01 1.6399402285260134e-01 5.4870261308228152e-01  5.1099809718387179e-01 1.6467587012878759e-01 5.5237586036690201e-01  5.1185390907770967e-01 1.6539455982001910e-01 5.5592294358269001e-01  5.1268575064749622e-01 1.6614053672144302e-01 5.5932432641898289e-01  5.1350596723620934e-01 1.6692143432823170e-01 5.6263382753801283e-01  5.1430631651132519e-01 1.6772514057205443e-01 5.6582169053138454e-01  5.1508003964560856e-01 1.6854070928793446e-01 5.6886388384997533e-01  5.1583808837573286e-01 1.6937672233517709e-01 5.7180801405618620e-01  5.1657788479667455e-01 1.7022597085801791e-01 5.7464606616634262e-01  5.1729986583973286e-01 1.7108731715356340e-01 5.7738267891940032e-01  5.1800304715505696e-01 1.7195642585113566e-01 5.8001663331890163e-01  5.1868971045196921e-01 1.7283341892974266e-01 5.8255893223678468e-01  5.1936000047369890e-01 1.7371653852468341e-01 5.8501229913352626e-01  5.2000968891799892e-01 1.7459751854907579e-01 5.8736373104735062e-01  5.2064318840725932e-01 1.7548043960004325e-01 5.8963116036441288e-01  5.2126298744196098e-01 1.7636645299117801e-01 5.9182593536019934e-01  5.2186084604097904e-01 1.7724227266876960e-01 5.9392019743403845e-01  5.2244638235707208e-01 1.7812006478898121e-01 5.9594999420907668e-01  5.2301585840116172e-01 1.7899245012607068e-01 5.9790366916092785e-01  5.2356862854315800e-01 1.7985693709243383e-01 5.9978097667310437e-01  5.2410603190926519e-01 1.8071413243380940e-01 6.0158789789128053e-01  5.2462806865054934e-01 1.8156254060377797e-01 6.0332602312065398e-01  5.2513625157771437e-01 1.8240336474616947e-01 6.0500175782406873e-01  5.2563243479147226e-01 1.8323849965045708e-01 6.0662244555006228e-01  5.2610925677521836e-01 1.8405411611862763e-01 6.0816552140890512e-01  5.2657031071673865e-01 1.8485511649814018e-01 6.0964406712057340e-01  5.2702451016854857e-01 1.8565605041257116e-01 6.1108761826594060e-01  5.2746102667668882e-01 1.8643678719921450e-01 6.1246287553132972e-01  5.2788097527737565e-01 1.8719822883773288e-01 6.1377464685814109e-01  5.2828968378964780e-01 1.8794892312607162e-01 6.1504067850714605e-01  5.2868428196827100e-01 1.8868268508537228e-01 6.1625299045572424e-01  5.2906763207578578e-01 1.8940414497501853e-01 6.1742140812912127e-01  5.2943380904035275e-01 1.9010101695088208e-01 6.1852871366193918e-01  5.2978973179915623e-01 1.9078586483060789e-01 6.1959694843128377e-01  5.3013137862184201e-01 1.9145005427974257e-01 6.2061475857922210e-01  5.3046157650056736e-01 1.9209838145714236e-01 6.2159128662130869e-01  5.3078134454032178e-01 1.9273217623219116e-01 6.2253037239254894e-01  5.3108438071095798e-01 1.9333834076974832e-01 6.2341443457669476e-01  5.3137395388852771e-01 1.9392258685727012e-01 6.2425355889144685e-01  5.3165550639241077e-01 1.9449528030570595e-01 6.2506433760251179e-01  5.3192208658812756e-01 1.9504179736979119e-01 6.2582725347445323e-01  5.3217484151184802e-01 1.9556382995927635e-01 6.2654643617698025e-01  5.3241671735680762e-01 1.9606690495182255e-01 6.2723067092046969e-01  5.3264753775927309e-01 1.9655012839027747e-01 6.2788022953284217e-01  5.3286408600395285e-01 1.9700636469951577e-01 6.2848635662177976e-01  5.2883530557314429e-01 1.8896583849555451e-01 6.1671451492563378e-01  4.8595713427835152e-01 1.9135982860839282e-01 4.1324256906258128e-01  5.3345923526533134e-01 1.9828167646020661e-01 6.3013337130448044e-01  4.9776125234837287e-01 1.6145584827330342e-01 4.9054971230630706e-01  5.3291706719129106e-01 1.9711824511690978e-01 6.2863441593573377e-01  4.8489598545521262e-01 2.3066442465426748e-01 3.8572815171484559e-01  5.2958212648201219e-01 1.9040169112504779e-01 6.1896804498885560e-01  5.2096523643899018e-01 1.7596573617769298e-01 5.9076725588222134e-01  5.5806939944376177e-01 2.7407506452034774e-01 6.7437167620651550e-01  4.8657137030402375e-01 1.8712719613607695e-01 4.1887468249508375e-01  5.2482647460468079e-01 1.8188916020691276e-01 6.0398213179325599e-01  4.8537575147074519e-01 2.0029147819339091e-01 4.0531653740233126e-01  4.8457210625067659e-01 2.1857739752545066e-01 3.9064925161491260e-01  5.2153806815827919e-01 1.7676687905429886e-01 5.9279238947793012e-01  4.9459016821746377e-01 1.6404751373330684e-01 4.7319194144012150e-01  5.3432208616387589e-01 2.0015466793565870e-01 6.3248593333521352e-01  4.9843330153712267e-01 1.6496996386917950e-01 4.9273662481760672e-01  5.4772727360188844e-01 2.3784613602418292e-01 6.6131414724713911e-01  5.3468840385335681e-01 2.0096208139292510e-01 6.3347054002708869e-01  5.1694250879608261e-01 1.7065747387372504e-01 5.7603192684388016e-01  5.0300989127004148e-01 1.6073342235120966e-01 5.1676350189878406e-01  5.1137861164294585e-01 1.6498810778532086e-01 5.5396051097115362e-01  5.3463141231581446e-01 2.0083476584196722e-01 6.3331843613516747e-01  5.6563644081642039e-01 3.0881242687167532e-01 6.7598916054554115e-01  5.1068827456623078e-01 1.6447470697942826e-01 5.5106671938606233e-01  5.0685690746493561e-01 1.6194556575709257e-01 5.3450702472310052e-01  5.3427249260457255e-01 2.0004167342660295e-01 6.3235404273614026e-01  5.3088819855249803e-01 1.9294505870848899e-01 6.2284311692369687e-01  4.8986861755025368e-01 1.7254974255650524e-01 4.4422440819253023e-01  4.9667898550804401e-01 1.6800075684186391e-01 4.8258334952181653e-01  5.2657394936138258e-01 1.8488279733060264e-01 6.0964749796752415e-01  5.3211630888643702e-01 1.9545349110167928e-01 6.2637532778013971e-01  5.6767380710354176e-01 3.2008053058978658e-01 6.7474621063226148e-01  5.1525147839774477e-01 1.6876567138522627e-01 5.6952113470625965e-01  5.0294060411037900e-01 1.6065579821319131e-01 5.1645435098041226e-01  5.3379608446836280e-01 1.9900159130720213e-01 6.3106042512033289e-01  4.8485999029669941e-01 2.3807767183370798e-01 3.8118036457591703e-01  4.8491158427129860e-01 2.0479497126668564e-01 4.0019693934135570e-01  5.3200406833291747e-01 1.9521057831285030e-01 6.2606116952664936e-01  5.2718505572464991e-01 1.8594146389800867e-01 6.1159541563349640e-01  4.9372087202789938e-01 1.6497833916839280e-01 4.6823740765145400e-01  5.3173573939589058e-01 1.9828650090098499e-01 6.2420342308890953e-01  5.2409750685135947e-01 1.8072626051651569e-01 6.0154964126064736e-01  5.3453338074583823e-01 2.0061962981185280e-01 6.3305484399841805e-01  5.2818244114155422e-01 1.8776958194100857e-01 6.1470201908181921e-01  5.6533435086460215e-01 3.0723466972698726e-01 6.7609177501241624e-01  4.8614563553069173e-01 1.9939261503753469e-01 4.1023678690053483e-01  5.1828536129816027e-01 1.7234688146399982e-01 5.8105560842822734e-01  4.8943251967479984e-01 1.7404761161028953e-01 4.4114937445969610e-01  5.2992024864013565e-01 1.9103880097787923e-01 6.1998665084947024e-01  5.3282449990397307e-01 1.9693151096039022e-01 6.2837195850879657e-01  5.1966849295577344e-01 1.7413161509621244e-01 5.8613241539893191e-01  5.1796765095590347e-01 1.7548312808012237e-01 5.7884779042717693e-01  5.1470069795760287e-01 1.6813585478673693e-01 5.6737778153845331e-01  4.8760275668207465e-01 1.8088218880156082e-01 4.2775851749612065e-01  5.3112067316557865e-01 1.9342428181153365e-01 6.2351422292581871e-01  5.2324536066