<?xml version="1.0"?>
<VTKFile type="UnstructuredGrid"  version="0.1"  >
<UnstructuredGrid>
<Piece  NumberOfPoints="4940" NumberOfCells="9650">
<Points>
<DataArray  type="Float64"  NumberOfComponents="3"  format="ascii">500 250 0  0 250 0  250 500 0  250 0 0  256.8885856082646 499.9050767557906 0  263.7719401218049 499.6203791065173 0  270.6448364229772 499.1461232471188 0  277.5020553257866 498.4826693209355 0  284.3383895508592 497.6305211460281 0  291.1486476865662 496.5903258312597 0  297.9276581259182 495.3628732847843 0  304.6702729675493 493.9490956196674 0  311.3713719748657 492.3500664368026 0  318.0258664141369 490.5670000199653 0  324.6287029687753 488.6012504015818 0  331.1748675330201 486.4543103455647 0  337.6593890460416 484.1278102064655 0  344.0773432429536 481.6235166997244 0  350.4238564271474 478.9433315480048 0  356.694109139292 476.0892900492477 0  362.88333985546 473.0635595140469 0  368.9868485575419 469.8684376402048 0  375.0000003153078 466.5063507640667 0  380.9182288257928 462.9798520074548 0  386.7370398729688 459.2916193419558 0  392.4520147244077 455.444453565817 0  398.0588135356345 451.4412761437442 0  403.5531785622926 447.285127045646 0  408.9309374414144 442.9791624087773 0  414.1880064015299 438.5266521049243 0  419.3203932989752 433.9309773069245 0  424.324200661095 429.1956279150535 0  429.1956286596235 424.3241998957182 0  433.9309780058756 419.3203925397119 0  438.5266527445345 414.1880056671062 0  442.9791630130591 408.9309367076756 0  447.2851276060475 403.5531778422888 0  451.4412766621026 398.0588128303826 0  455.4444540361634 392.4520140460735 0  459.2916197786263 386.7370392045948 0  462.9798524073514 380.9182281752347 0  466.5063511234856 374.9999996927758 0  469.8684379657123 368.9868479560565 0  473.0635598144817 362.8833392617846 0  476.0892903190255 356.6941085676214 0  478.9433317963513 350.4238558609745 0  481.6235169154735 344.0773427117675 0  484.12781039012 337.6593885555221 0  486.4543105028062 331.1748670749914 0  488.601250531677 324.6287025528375 0  490.5670001317469 318.0258660188321 0  492.3500665291326 311.3713716102628 0  493.949095695951 304.6702726271575 0  495.3628733416623 297.9276578347343 0  496.5903258712341 291.1486474470129 0  497.6305211749058 284.3383893426084 0  498.4826693388848 277.502055163614 0  499.1461232580606 270.6448362909296 0  499.6203791109319 263.7719400417897 0  499.9050767571306 256.8885855596534 0  499.9050767559877 243.1114143988867 0  499.6203791069493 236.2280598860241 0  499.1461232485393 229.3551635941651 0  498.4826693235677 222.4979446979962 0  497.6305211491849 215.6616104719064 0  496.5903258357701 208.8513523404629 0  495.3628732906988 202.0723419043604 0  493.9490956264813 195.3297270628552 0  492.3500664487791 188.6286280724281 0  490.5670000344809 181.9741336371959 0  488.6012504175981 175.3712970824318 0  486.4543103623226 168.8251325157939 0  484.1278102222298 162.3406109960628 0  481.6235167152198 155.9226567951971 0  478.9433315621651 149.5761436051346 0  476.0892900516498 143.3058908657982 0  473.063559513628 137.1166601437124 0  469.8684376406648 131.0131514433083 0  466.5063507675389 124.9999996907064 0  462.9798520124137 119.0817711822745 0  459.2916193464549 113.2629601339176 0  455.4444535642773 107.5479852733717 0  451.4412761528674 101.9411864767781 0  447.2851270583545 96.44682145403524 0  442.9791624165781 91.06906256805769 0  438.5266521117469 85.81199360630404 0  433.9309773156125 80.67960671046254 0  429.1956279150353 75.67579933888632 0  424.3241998888952 70.80437133373906 0  419.3203925223282 66.06902197812161 0  414.1880056411937 61.47334723289828 0  408.9309366751728 57.0208369601728 0  403.5531778009394 52.71487236176898 0  398.058812796452 48.55872331295853 0  392.4520140187753 44.55554594490843 0  386.7370391799677 40.70838020528396 0  380.9182281475119 37.02014757560744 0  374.9999996718656 33.49364886444181 0  368.9868479340393 30.13156202237255 0  362.8833392380029 26.93644017348339 0  356.6941085456942 23.91070967062674 0  350.4238558420009 21.0566681953261 0  344.0773426899492 18.37648307566465 0  337.6593885328982 15.87218960140942 0  331.1748670549786 13.54568949032341 0  324.6287025315056 11.39874946165088 0  318.0258660010876 9.432999863235466 0  311.3713716017894 7.649933468721599 0  304.6702726190621 6.050904302234756 0  297.9276578269805 4.637126656823085 0  291.148647441857 3.409674127905504 0  284.3383893425031 2.369478825079682 0  277.502055159398 1.517330660648639 0  270.6448362875833 0.853876741662134 0  263.7719400401456 0.3796208889774277 0  256.8885855592052 0.09492324285704967 0  243.1114143979462 0.09492324403817065 0  236.2280598850882 0.3796208931023841 0  229.3551635938215 0.8538767514891958 0  222.4979446968584 1.517330676558146 0  215.6616104703111 2.369478851036291 0  208.8513523382973 3.409674164591252 0  202.0723419066374 4.637126708856528 0  195.3297270659513 6.050904372824903 0  188.628628074828 7.649933550613184 0  181.9741336377093 9.432999965373938 0  175.3712970793675 11.39874958336037 0  168.8251325057572 13.54568964112298 0  162.340610986655 15.87218978129263 0  155.9226567874317 18.37648328793418 0  149.576143602509 21.05666843898663 0  143.3058908718157 23.91070994551046 0  137.1166601505524 26.93644048291054 0  131.0131514451933 30.13156235831508 0  124.9999996848412 33.49364923584736 0  119.0817711715717 37.0201479941652 0  113.2629601211624 40.70838066187849 0  107.5479852622251 44.55554644345162 0  101.9411864693332 48.55872385260452 0  96.44682143286516 52.71487295812284 0  91.06906254351222 57.02083760363669 0  85.81199358272519 61.4733479087879 0  80.67960667988106 66.06902271253972 0  75.67579930062769 70.80437212218331 0  70.80437129287643 75.67580015310926 0  66.06902193673014 80.67960752263491 0  61.47334718684866 85.81199441168215 0  57.02083692524275 91.0690633672404 0  52.71487232786438 96.44682224262129 0  48.55872328070024 101.941187247437 0  44.55554591578033 107.5479860232332 0  40.7083801742321 113.2629608675606 0  37.02014754791168 119.0817718975441 0  33.49364883372994 125.000000381329 0  30.13156199866361 131.0131521097709 0  26.9364401549829 137.1166607985551 0  23.91070965524918 143.3058914868915 0  21.05666818346614 149.576144185037 0  18.37648306853811 155.9226573275967 0  15.8721895918909 162.3406114925245 0  13.54568948170046 168.8251329701392 0  11.39874945301878 175.3712974960928 0  9.432999857087736 181.9741340206533 0  7.649933466342702 188.6286284076045 0  6.050904301250966 195.3297273853278 0  4.637126656808988 202.0723421730917 0  3.409674127767772 208.8513525589684 0  2.369478824521138 215.6616106615248 0  1.517330660909465 222.4979448382452 0  0.8538767414496533 229.355163714981 0  0.3796208887135322 236.2280599646376 0  0.09492324266324204 243.1114144478261 0  0.0949232442452228 256.8885856095658 0  0.3796208935834784 263.7719401236316 0  0.8538767530323526 270.6448364248016 0  1.517330679476544 277.5020553295092 0  2.369478854618649 284.3383895555228 0  3.409674170191892 291.1486476952655 0  4.6371267162381 297.9276581311522 0  6.050904381420935 304.6702729724059 0  7.649933562385399 311.3713719716595 0  9.43299997979841 318.0258664133013 0  11.3987495994252 324.6287029719946 0  13.54568965885832 331.174867545904 0  15.87218979367188 337.6593890464085 0  18.37648329843151 344.0773432384132 0  21.05666844777872 350.423856417535 0  23.91070995156048 356.6941091410045 0  26.93644048988043 362.8833398632205 0  30.13156235982007 368.9868485575877 0  33.49364924138357 375.0000003247478 0  37.0201480006036 380.9182288389023 0  40.70838066758398 386.7370398875706 0  44.55554644477201 392.4520147396792 0  48.55872386086904 398.0588135419111 0  52.71487295981296 403.5531785693063 0  57.02083760525949 408.9309374584583 0  61.47334790862246 414.1880064170849 0  66.06902271205095 419.320393319588 0  70.80437211216579 424.3242006890749 0  75.67580013809859 429.195628692521 0  80.6796075127923 433.930978054209 0  85.81199439754931 438.5266528008431 0  91.06906334717917 442.9791630582355 0  96.44682221438322 447.2851276501571 0  101.9411872243843 451.441276702356 0  107.5479859945825 455.4444540643537 0  113.2629608446994 459.2916198108319 0  119.0817718768376 462.9798524393601 0  125.0000003647644 466.5063511567065 0  131.0131521012763 469.8684379967393 0  137.1166607840049 473.0635598376539 0  143.3058914748804 476.0892903390826 0  149.5761441732679 478.9433318113714 0  155.9226573130112 481.6235169255377 0  162.3406114779862 484.1278104026658 0  168.8251329570439 486.4543105138039 0  175.3712974805475 488.601250542119 0  181.9741340135204 490.5670001408953 0  188.6286284005059 492.3500665318597 0  195.3297273788229 493.9490956972913 0  202.0723421640089 495.3628733414168 0  208.8513525529672 496.5903258712308 0  215.6616106544547 497.6305211744985 0  222.4979448327038 498.4826693384772 0  229.3551637102845 499.1461232581612 0  236.2280599621369 499.6203791111485 0  243.1114144470173 499.9050767573145 0  155.2373389820306 474.8197567317462 0  25.36256300907667 153.9152755065208 0  432.3709625126712 412.6214396304305 0  6.013151705810699 246.637913163471 0  246.6379131630491 493.986848294322 0  338.6995838441862 22.68244767887072 0  477.3175523131281 338.6995838660569 0  493.9868482700757 246.6379131399102 0  246.6201155078769 6.218451882810491 0  417.6179310263282 72.7156044707053 0  102.2232990934413 445.0100869616822 0  63.66330858966404 92.20354579482142 0  391.3105220491464 50.73522820883105 0  72.79295043967942 418.0702734974704 0  448.290574428537 108.25674339002 0  402.4604651193511 440.7462829841712 0  97.55317348421397 59.11376320116034 0  136.7376477664901 33.58246472647134 0  363.3288394375288 465.6947312928271 0  44.0678766556007 381.0860953771871 0  469.6905266180034 142.3890690100806 0  22.68244791668644 338.6995843487432 0  338.699584349159 477.317552078365 0  173.389488083762 18.6681884918202 0  483.4809734778481 179.7121987795732 0  13.50237455842738 306.4709525540879 0  305.9825168523021 487.24416992
[...]
<PointData  Vectors="f_12"> 
<DataArray  type="Float64"  Name="f_12"  NumberOfComponents="3" format="ascii">6.1806910225081180e-01 7.5546314447797713e-01 3.8381979646668596e-01  6.5094183885957901e-01 6.0333110241286503e-01 6.2358534598650595e-01  5.9568693935175998e-01 7.7281586516459666e-01 3.2073508257435224e-01  5.3120409676463642e-01 6.8667931582095831e-01 2.1102296671504112e-01  5.9516626503642556e-01 7.7292956579889383e-01 3.1950353864887715e-01  5.9470147822932151e-01 7.7301828254324190e-01 3.1841359242997314e-01  5.9423818981706189e-01 7.7309898965537260e-01 3.1733121313914336e-01  5.9382145381686291e-01 7.7316265087303560e-01 3.1636434867997731e-01  5.9343094610685931e-01 7.7321491211195537e-01 3.1546327359039461e-01  5.9307064060677406e-01 7.7325752307880358e-01 3.1463509190973976e-01  5.9273927350420186e-01 7.7329171296739341e-01 3.1387673473165589e-01  5.9243170961674196e-01 7.7331930152013739e-01 3.1317530342141392e-01  5.9215280203532528e-01 7.7334078473440759e-01 3.1254136013111672e-01  5.9190544232760456e-01 7.7335682839583308e-01 3.1198119604361174e-01  5.9172458996842037e-01 7.7336490028970717e-01 3.1157482941353404e-01  5.9149872208113974e-01 7.7337803884858514e-01 3.1106282941731001e-01  5.9139918674516023e-01 7.7337931059417986e-01 3.1084181985074455e-01  5.9126801071667601e-01 7.7338471555494115e-01 3.1054621298410229e-01  5.9118014633793692e-01 7.7338725212801351e-01 3.1034931131064597e-01  5.9111602606139735e-01 7.7338963643468495e-01 3.1020479740463469e-01  5.9106919269185931e-01 7.7339290950759543e-01 3.1009681924880916e-01  5.9108442013776341e-01 7.7339215219149204e-01 3.1013137117664341e-01  5.9113340742478837e-01 7.7339019450770052e-01 3.1024241448382206e-01  5.9117082859747716e-01 7.7339168510940415e-01 3.1032329558681088e-01  5.9124259680904234e-01 7.7339215159349450e-01 3.1048132144274393e-01  5.9136419044682365e-01 7.7338876866157180e-01 3.1075367813688315e-01  5.9154446833451269e-01 7.7338074676306923e-01 3.1116019384639498e-01  5.9170718306715842e-01 7.7337559643027753e-01 3.1152396746408062e-01  5.9189382098273380e-01 7.7336840003991514e-01 3.1194179576723774e-01  5.9215475484532665e-01 7.7335192630991811e-01 3.1253223253528412e-01  5.9240988221428970e-01 7.7333519960537322e-01 3.1310876257669412e-01  5.9270393138593935e-01 7.7331094285628610e-01 3.1377686773640745e-01  5.9303152352187694e-01 7.7327927931809592e-01 3.1452444262728546e-01  5.9336577243732724e-01 7.7324389899984380e-01 3.1528804237530067e-01  5.9377127611873082e-01 7.7319046521395585e-01 3.1622324312880068e-01  5.9419571766366941e-01 7.7312781891457361e-01 3.1720614647195405e-01  5.9461234648129668e-01 7.7306242989247864e-01 3.1817101776477918e-01  5.9509498953363171e-01 7.7297312917923733e-01 3.1929972425831621e-01  5.9564728011193235e-01 7.7285386125064137e-01 3.2060564369931649e-01  5.9620168377707117e-01 7.7272325488469440e-01 3.2192236295084808e-01  5.9674997871573188e-01 7.7258415389144919e-01 3.2322925101757771e-01  5.9736417528022989e-01 7.7240796081574536e-01 3.2470946400510819e-01  5.9804764911691599e-01 7.7219013602845177e-01 3.2637338843266966e-01  5.9874189245549403e-01 7.7194878399078981e-01 3.2807680036015741e-01  5.9948824818418722e-01 7.7166154706759804e-01 3.2993033195688765e-01  6.0027564181758519e-01 7.7133198197516784e-01 3.3190471031556718e-01  6.0109634817983970e-01 7.7095846982200533e-01 3.3398488098732421e-01  6.0194398868867383e-01 7.7054076303529506e-01 3.3615853262549772e-01  6.0288800254299124e-01 7.7002852745165840e-01 3.3861776469748334e-01  6.0386080341174597e-01 7.6945991708169370e-01 3.4118465427059191e-01  6.0486916178761574e-01 7.6881919251864739e-01 3.4388734631596896e-01  6.0593778938215803e-01 7.6808870385646322e-01 3.4679536141510892e-01  6.0703700472125366e-01 7.6727745026429572e-01 3.4983649776663883e-01  6.0822792706396067e-01 7.6632541075384319e-01 3.5319833786478538e-01  6.0946129437658292e-01 7.6526410520468069e-01 3.5674653203396950e-01  6.1072742977874817e-01 7.6409410326150295e-01 3.6046152054386565e-01  6.1207272429157866e-01 7.6275078668258067e-01 3.6450495556248697e-01  6.1346724977396283e-01 7.6125264759377531e-01 3.6879834586947213e-01  6.1490655074827194e-01 7.5960521062978958e-01 3.7332108412256254e-01  6.1633990490223933e-01 7.5785380868275087e-01 3.7794501332367292e-01  6.1965749047910890e-01 7.5320459715606902e-01 3.8926236064599046e-01  6.2131877842815586e-01 7.5061942219079703e-01 3.9520232728341803e-01  6.2299738815757277e-01 7.4779552934255655e-01 4.0144133616853028e-01  6.2479489848980063e-01 7.4453575671593197e-01 4.0838170324837497e-01  6.2661787411660952e-01 7.4094859441152261e-01 4.1574398532611834e-01  6.2848320179470440e-01 7.3697513322666230e-01 4.2362630627085179e-01  6.3036846859768825e-01 7.3258251326874979e-01 4.3203998355001244e-01  6.3228670956565003e-01 7.2769869740261839e-01 4.4109646541713898e-01  6.3420666502541723e-01 7.2233756615214673e-01 4.5073196901073376e-01  6.3611088828436280e-01 7.1647447957666577e-01 4.6095522510588871e-01  6.3803727026266821e-01 7.0985322879059054e-01 4.7214997671494974e-01  6.3990575929035298e-01 7.0267995766619529e-01 4.8393866248485651e-01  6.4172023146976009e-01 6.9480304186066755e-01 4.9651361737114186e-01  6.4348586435704125e-01 6.8599039278591223e-01 5.1018473622395466e-01  6.4515445301918739e-01 6.7627365590496602e-01 5.2482487931442556e-01  6.4668476289986876e-01 6.6561073943300153e-01 5.4042497591545957e-01  6.4805114442620948e-01 6.5390122428552810e-01 5.5704717175814500e-01  6.4920731644043184e-01 6.4101565830198048e-01 5.7477012226874435e-01  6.5011177638242945e-01 6.2675723562290808e-01 5.9373696157127465e-01  6.5071469868071330e-01 6.1106196852505701e-01 6.1387949574562339e-01  6.5096023815838566e-01 5.9419057506737216e-01 6.3472676167889941e-01  6.5075556303660687e-01 5.7505434595569360e-01 6.5735100366863208e-01  6.5002949444883740e-01 5.5416474481697076e-01 6.8085155384986429e-01  6.4868979722101794e-01 5.3105325173377438e-01 7.0544291398873249e-01  6.4662435399900653e-01 5.0567391016011065e-01 7.3068119143906962e-01  6.4371434633282731e-01 4.7786714884177095e-01 7.5616453366542946e-01  6.3982344351789988e-01 4.4747010425801570e-01 7.8132003792567661e-01  6.3481428570739551e-01 4.1446117530175308e-01 8.0527713450460348e-01  6.2854200046413411e-01 3.7891195362051805e-01 8.2677414356966983e-01  6.2087297456832380e-01 3.4120097885468209e-01 8.4411862452093867e-01  6.1174128029219410e-01 3.0203064485330411e-01 8.5524001012179207e-01  6.0119833424728342e-01 2.6267311661239595e-01 8.5769579111141347e-01  5.8950166574929963e-01 2.2485407584225250e-01 8.4979333594891526e-01  5.7681775077623432e-01 1.8997290321145768e-01 8.2957595731240841e-01  5.6378581306195019e-01 1.5984797763458922e-01 7.9789833926875153e-01  5.5180300850744324e-01 1.3669257744567506e-01 7.6011368026831094e-01  5.4148228824788314e-01 1.2009750326733995e-01 7.2096767707677578e-01  5.3306600192249221e-01 1.0873577552841870e-01 6.8502690366057528e-01  5.2787005489427552e-01 1.0216499853951960e-01 6.6203609350582793e-01  5.2579574607505031e-01 9.9095337622309154e-02 6.5355925874709397e-01  5.2640575187632133e-01 9.9906944967928235e-02 6.5713492325631506e-01  5.3545278914609762e-01 1.1112548362366041e-01 6.9921929276152439e-01  5.5339577369591875e-01 1.4009735236781282e-01 7.7004415245230051e-01  5.8277472741337200e-01 2.0791166776560938e-01 8.4673726717908759e-01  6.1672979800858641e-01 3.3343746863481916e-01 8.4742233154487145e-01  6.4074939942696796e-01 4.8321555741125766e-01 7.4913973307920012e-01  6.4720164466772145e-01 6.0720808666888704e-01 6.1514953917232218e-01  6.3957173989026705e-01 6.9039989953010605e-01 4.9977829942600366e-01  6.2485295585206657e-01 7.3894755484897334e-01 4.1612554215312997e-01  6.0820663980180556e-01 7.6376124059263628e-01 3.5681595399729304e-01  5.9214917644369880e-01 7.7250509255949340e-01 3.1405394895119221e-01  5.7775186329018435e-01 7.6932453231505327e-01 2.8341609326517453e-01  5.6524963437239095e-01 7.5854253454606868e-01 2.6065898989354819e-01  5.5444331649735079e-01 7.4288173258586732e-01 2.4323565949814652e-01  5.4530370819438756e-01 7.2459192032251840e-01 2.2975176539726921e-01  5.3757908190073311e-01 7.0538706015980057e-01 2.1922612523256321e-01  5.2626401596324179e-01 6.7021438447031034e-01 2.0518774643439189e-01  5.2124666502923234e-01 6.5242305236411535e-01 1.9916346442390159e-01  5.1824535407334804e-01 6.4031130003248693e-01 1.9588415439676504e-01  5.1569449775828524e-01 6.2975615663337381e-01 1.9316919495612211e-01  5.1380151185431078e-01 6.2166011948185351e-01 1.9115798093493491e-01  5.1264682690448260e-01 6.1656160359454348e-01 1.8997983814168956e-01  5.1215015745571590e-01 6.1433557159384788e-01 1.8947254558982563e-01  5.1221009189037525e-01 6.1460716846268115e-01 1.8953340872734425e-01  5.1289708385222876e-01 6.1765764941786394e-01 1.9023875828448020e-01  5.1387925130609324e-01 6.2203372772764687e-01 1.9123349911262918e-01  5.1597783652190088e-01 6.3098341428419913e-01 1.9345527686558059e-01  5.1862248052102522e-01 6.4179306674030101e-01 1.9632753359960348e-01  5.2196662390948845e-01 6.5479351255737117e-01 2.0009265340632418e-01  5.2591785377545464e-01 6.6918390584191034e-01 2.0461974126865831e-01  5.3080763746407755e-01 6.8546155649503149e-01 2.1050092966482856e-01  5.3680819668107960e-01 7.0326731689576460e-01 2.1814696395869260e-01  5.4371979810166482e-01 7.2098788179618267e-01 2.2747355765263993e-01  5.5167527865167720e-01 7.3789749679178651e-01 2.3889305003571690e-01  5.6077298329920511e-01 7.5290883445173784e-01 2.5301579146514913e-01  5.7110071710230259e-01 7.6474654004121700e-01 2.7067269796810045e-01  5.8272803978843524e-01 7.7161286324467382e-01 2.9318693407773810e-01  5.9535513401778728e-01 7.7209714128865592e-01 3.2128712021015099e-01  6.0849567777806390e-01 7.6470459489813181e-01 3.5601863414060247e-01  6.2164269578578280e-01 7.4789950374941605e-01 3.9939911685787882e-01  6.3389469251530040e-01 7.1986217742613312e-01 4.5349384865957698e-01  6.4375296041338892e-01 6.7827371119905999e-01 5.2020483396652661e-01  6.4930560321831388e-01 6.2151227810179255e-01 5.9855912149445301e-01  6.4889765373525954e-01 5.5125259482680422e-01 6.8170339165997285e-01  6.4230186472375339e-01 4.7331524727581020e-01 7.5739190747436747e-01  6.3140041502192734e-01 3.9787354653650781e-01 8.1352320548579793e-01  6.1911005959124477e-01 3.3442854631600583e-01 8.4535091397132056e-01  6.0871781773384137e-01 2.9011769217353128e-01 8.5584375000307278e-01  6.0094216184828542e-01 2.6081011883729860e-01 8.5729438406919334e-01  5.9637069510016183e-01 2.4511213574211782e-01 8.5548923755725437e-01  5.9334207853155152e-01 2.3579810807173093e-01 8.5271453726360913e-01  5.9277240279253363e-01 2.3410246565337225e-01 8.5242143281601124e-01  5.9414911324600250e-01 2.3854974072817967e-01 8.5359166053998403e-01  5.9713654537281124e-01 2.4826341238436778e-01 8.5574931544238741e-01  6.0143037077979900e-01 2.6284143255088338e-01 8.5746134715507571e-01  6.0657788058779394e-01 2.8140496311576463e-01 8.5744305657402453e-01  6.1176936676151050e-01 3.0143807116250243e-01 8.5522478019950743e-01  6.1701282442067196e-01 3.2332425504817075e-01 8.4999483864150993e-01  6.2234722332932657e-01 3.4736954837862472e-01 8.4157851159486419e-01  6.2718135273258802e-01 3.7110936646513359e-01 8.3079949437868239e-01  6.3152310424417712e-01 3.9445949853629758e-01 8.1788966593852486e-01  6.3541658066573425e-01 4.1740376405547547e-01 8.0327382182843943e-01  6.3894452826869297e-01 4.4042307917099316e-01 7.8676540007622309e-01  6.4175283838571906e-01 4.6105866072076712e-01 7.7042003345237764e-01  6.4420862484949459e-01 4.8133090744398227e-01 7.5314366740356253e-01  6.4619263061692445e-01 5.0018982150105051e-01 7.3589971853869263e-01  6.4782947716546113e-01 5.1849628709053419e-01 7.1818667789600543e-01  6.4906222064893737e-01 5.3524577695949838e-01 7.0113269681712165e-01  6.4994687253200323e-01 5.5067761625269540e-01 6.8471155165859443e-01  6.5054951701807340e-01 5.6518065497261882e-01 6.6865941810422647e-01  6.5089698617700076e-01 5.7880275246256663e-01 6.5304734632824057e-01  6.5101909808736502e-01 5.9149687102379400e-01 6.3801312558341339e-01  6.5068998650074328e-01 6.1431237226623059e-01 6.0982847433623710e-01  6.5028460882158057e-01 6.2452496668645652e-01 5.9670193764088897e-01  6.4974183167536281e-01 6.3418012511352417e-01 5.8399843327035306e-01  6.4908769746221495e-01 6.4314102561451891e-01 5.7193546427183239e-01  6.4833492759034228e-01 6.5150563905780734e-01 5.6043270499794118e-01  6.4749799946348585e-01 6.5931974240544278e-01 5.4946504538478436e-01  6.4658713460084816e-01 6.6663646424404310e-01 5.3898893460072672e-01  6.4561735944025000e-01 6.7346908674760142e-01 5.2901559740413195e-01  6.4459541942312903e-01 6.7987037243070347e-01 5.1949436888708123e-01  6.4352980798947856e-01 6.8587013462703783e-01 5.1040308909610288e-01  6.4242669396616014e-01 6.9149895605981182e-01 5.0171542704701877e-01  6.4130763320157358e-01 6.9672642702717769e-01 4.9350109748838206e-01  6.4014594759111021e-01 7.0171924983316702e-01 4.8551190398932070e-01  6.3896639867669824e-01 7.0640809590532316e-01 4.7787338217254111e-01  6.3778495332646812e-01 7.1076039559525306e-01 4.7064968570171073e-01  6.3655866586440157e-01 7.1497308821229200e-01 4.6352815910616257e-01  6.3532960312486209e-01 7.1891704266554957e-01 4.5673394660050726e-01  6.3412538025053411e-01 7.2253336369285059e-01 4.5038052646030902e-01  6.3289919013046825e-01 7.2598875057989598e-01 4.4419060596179549e-01  6.3167435317416010e-01 7.2924902160807503e-01 4.3823674401427160e-01  6.3044650964799043e-01 7.3232861337133159e-01 4.3249660223753356e-01  6.2922058110238044e-01 7.3522839486915481e-01 4.2697521371294644e-01  6.2799393328465736e-01 7.3797466978187176e-01 4.2163367399944834e-01  6.2676402819300503e-01 7.4057925812899761e-01 4.1645261945803097e-01  6.2556008156209764e-01 7.4299137545628913e-01 4.1154193378851145e-01  6.2435296591428935e-01 7.4528354092975324e-01 4.0676233711259979e-01  6.2314610494668787e-01 7.4746029370564637e-01 4.0211425183021288e-01  6.2197235707244469e-01 7.4946184031274832e-01 3.9772431370010258e-01  6.2078976447289047e-01 7.5137653149473871e-01 3.9341383178481404e-01  6.1961999606444873e-01 7.5317670069288245e-01 3.8925066010480264e-01  6.1846955540500104e-01 7.5485396995754317e-01 3.8525761790337215e-01  6.1733160435673107e-01 7.5642721787713529e-01 3.8139867708398867e-01  6.1620941867273782e-01 7.5789828119010694e-01 3.7767696470943868e-01  6.1509664172077128e-01 7.5928036424039891e-01 3.7406512952597348e-01  6.1398654341051417e-01 7.6058807280917773e-01 3.7053256098382503e-01  6.1292161483654106e-01 7.6177380187830102e-01 3.6721293412719130e-01  6.1187858543121054e-01 7.6287065831038892e-01 3.6402503705402106e-01  6.1081726154260307e-01 7.6392969915279618e-01 3.6083387162689207e-01  6.0979682277920688e-01 7.6488858557333794e-01 3.5782260609364153e-01  6.0881083885238940e-01 7.6575979065674971e-01 3.5496527452034160e-01  6.0783384805524421e-01 7.6657554520435089e-01 3.5217585603957724e-01  6.0688343759033858e-01 7.6732251939764518e-01 3.4950373278225799e-01  6.0594223120521828e-01 7.6801708834961180e-01 3.4689716220105132e-01  6.0504973062693301e-01 7.6863517677582227e-01 3.4445995908065008e-01  6.0416324209426442e-01 7.6920959900250341e-01 3.4207304330768595e-01  6.0331103260506802e-01 7.6972532252938597e-01 3.3980922446105216e-01  6.0247675183130955e-01 7.7019764195530005e-01 3.3761792267621393e-01  6.0165692566074302e-01 7.7063068045282512e-01 3.3548894011635710e-01  6.0088664747587961e-01 7.7100487601350998e-01 3.3351726682508176e-01  6.0014833643575172e-01 7.7133719705066117e-01 3.3164711436521899e-01  5.9941350702155782e-01 7.7164515291327074e-01 3.2980197022126689e-01  5.9872111286774399e-01 7.7191087914033196e-01 3.2808240584357262e-01  5.9806620108858477e-01 7.7214057075320763e-01 3.2647304363687901e-01  5.9743152991104909e-01 7.7234540103481386e-01 3.2492490344039099e-01  5.9682154782328833e-01 7.7252594343121483e-01 3.2344884401715640e-01  5.9625273693338277e-01 7.7267773974683418e-01 3.2208416160065501e-01  6.0668515561580305e-01 7.6745541027409614e-01 3.4897450515011713e-01  6.1697016182549358e-01 3.2336887313029850e-01 8.5014830512704576e-01  5.9392623957340207e-01 7.7315142260736580e-01 3.1660390915839187e-01  6.5098944422181759e-01 5.9514966506095024e-01 6.3359035207527137e-01  5.9629043698228856e-01 7.7265383823864597e-01 3.2219310098902371e-01  5.3860437698626573e-01 1.2455932491903626e-01 7.1372026933068289e-01  6.0197264634719128e-01 7.7049029959959825e-01 3.3627899492654173e-01  6.1928073364970404e-01 7.5371922635399635e-01 3.8801337175442208e-01  5.3028648224149777e-01 6.8371620701221647e-01 2.1010791890975292e-01  6.2365543964701964e-01 3.5454792173940164e-01 8.3857914897819652e-01  6.1591448688871475e-01 7.5825325415835343e-01 3.7673795266122906e-01  5.9590499428910249e-01 2.4998900924358028e-01 8.5544351822255138e-01  5.6570228791364496e-01 1.6393580534186569e-01 8.0381689697373704e-01  6.2277449979634469e-01 7.4807829651252133e-01 4.0075021504260472e-01  6.5030762665609887e-01 5.6140156809305808e-01 6.7286512763636508e-01  5.9212653223742462e-01 7.7333652530760111e-01 3.1249042184889225e-01  6.3050907232639253e-01 7.2516608696456542e-01 4.4229172132511796e-01  5.4966226594571388e-01 7.3368345807052104e-01 2.3622988995270350e-01  5.9144068077054957e-01 7.7336736641950898e-01 3.1095057792412722e-01  6.3122133102872391e-01 7.3036933666472659e-01 4.3614648984791454e-01  6.4758894005442469e-01 6.5791222104335312e-01 5.5139123946098467e-01  6.3978516383368733e-01 7.0313569840107448e-01 4.8321072168279527e-01  5.9165253603654333e-01 7.7335566378100873e-01 3.1142891203795653e-01  5.1918419386362946e-01 6.4397690183667677e-01 1.9708987932538774e-01  6.3765428544159986e-01 7.1112689203746915e-01 4.7000129375684008e-01  6.4535657605456898e-01 6.7499988836732239e-01 5.2673671989376947e-01  5.9267432272703735e-01 7.7328224214449792e-01 3.1374838443575986e-01  6.0157774907406347e-01 7.7065327976588172e-01 3.3530923746472774e-01  6.4248486854853526e-01 4.6711752592204203e-01 7.6539677662367944e-01  6.1982496060574721e-01 7.4598488112053019e-01 3.9942975035529465e-01  6.0809915693942818e-01 7.6639525552879550e-01 3.5288283029060141e-01  5.9672859754506025e-01 7.7256514950649302e-01 3.2320944758613601e-01  5.1355514998104002e-01 6.2044241257591048e-01 1.9102892037535427e-01  6.2997453366963951e-01 7.3344420526264065e-01 4.3036976458782278e-01  6.4885254287646132e-01 6.4566808325266523e-01 5.6847525916141350e-01  5.9394688306262744e-01 7.7312886002007475e-01 3.1667449362498057e-01  5.2250097061911505e-01 9.7776332992647208e-02 6.3557875446990142e-01  5.9027925703942596e-01 2.2724916427746655e-01 8.5016034276596097e-01  5.9868682402043738e-01 7.7190719945417352e-01 3.2801921598009198e-01  6.1062569165792380e-01 7.6409716228325830e-01 3.6028943764679411e-01  6.4938085091227438e-01 5.4098959538939284e-01 6.9508693138308442e-01  5.6299405578967010e-01 7.5534192554076873e-01 2.5738396032411615e-01  6.1309141275248180e-01 7.6161841090445082e-01 3.6769790253347345e-01  5.9179043355519767e-01 7.7334828319107185e-01 3.1174139448381782e-01  6.0489267502667066e-01 7.6876521504611472e-01 3.4400427048163362e-01  5.1798995450858931e-01 6.3910729351085094e-01 1.9577487055383777e-01  6.3920108955251620e-01 4.9458235292285896e-01 7.3779046231014012e-01  6.2449128448562174e-01 7.4502579882558617e-01 4.0730245834914375e-01  6.4112369008098857e-01 4.5728596413696254e-01 7.7352601043854086e-01  6.0402741543957317e-01 7.6927528530744993e-01 3.4173500385810668e-01  5.9532874565448257e-01 7.7289983547487817e-01 3.1988431274785600e-01  6.2639899354301654e-01 7.4128744101106614e-01 4.1500096635010025e-01  5.9207608540746692e-01 7.7179850163062780e-01 3.1462977062851649e-01  6.3488059540027664e-01 7.2024602031403873e-01 4.5439921303142111e-01  6.3246565352954576e-01 4.0011361517653926e-01 8.1449098263671726e-01  5.9881221855598410e-01 7.7189675133159275e-01 3.2828565521301450e-01  6.1931592445