<?xml version="1.0"?>
<VTKFile type="UnstructuredGrid"  version="0.1"  >
<UnstructuredGrid>
<Piece  NumberOfPoints="4940" NumberOfCells="9650">
<Points>
<DataArray  type="Float64"  NumberOfComponents="3"  format="ascii">500 250 0  0 250 0  250 500 0  250 0 0  256.8885856082646 499.9050767557906 0  263.7719401218049 499.6203791065173 0  270.6448364229772 499.1461232471188 0  277.5020553257866 498.4826693209355 0  284.3383895508592 497.6305211460281 0  291.1486476865662 496.5903258312597 0  297.9276581259182 495.3628732847843 0  304.6702729675493 493.9490956196674 0  311.3713719748657 492.3500664368026 0  318.0258664141369 490.5670000199653 0  324.6287029687753 488.6012504015818 0  331.1748675330201 486.4543103455647 0  337.6593890460416 484.1278102064655 0  344.0773432429536 481.6235166997244 0  350.4238564271474 478.9433315480048 0  356.694109139292 476.0892900492477 0  362.88333985546 473.0635595140469 0  368.9868485575419 469.8684376402048 0  375.0000003153078 466.5063507640667 0  380.9182288257928 462.9798520074548 0  386.7370398729688 459.2916193419558 0  392.4520147244077 455.444453565817 0  398.0588135356345 451.4412761437442 0  403.5531785622926 447.285127045646 0  408.9309374414144 442.9791624087773 0  414.1880064015299 438.5266521049243 0  419.3203932989752 433.9309773069245 0  424.324200661095 429.1956279150535 0  429.1956286596235 424.3241998957182 0  433.9309780058756 419.3203925397119 0  438.5266527445345 414.1880056671062 0  442.9791630130591 408.9309367076756 0  447.2851276060475 403.5531778422888 0  451.4412766621026 398.0588128303826 0  455.4444540361634 392.4520140460735 0  459.2916197786263 386.7370392045948 0  462.9798524073514 380.9182281752347 0  466.5063511234856 374.9999996927758 0  469.8684379657123 368.9868479560565 0  473.0635598144817 362.8833392617846 0  476.0892903190255 356.6941085676214 0  478.9433317963513 350.4238558609745 0  481.6235169154735 344.0773427117675 0  484.12781039012 337.6593885555221 0  486.4543105028062 331.1748670749914 0  488.601250531677 324.6287025528375 0  490.5670001317469 318.0258660188321 0  492.3500665291326 311.3713716102628 0  493.949095695951 304.6702726271575 0  495.3628733416623 297.9276578347343 0  496.5903258712341 291.1486474470129 0  497.6305211749058 284.3383893426084 0  498.4826693388848 277.502055163614 0  499.1461232580606 270.6448362909296 0  499.6203791109319 263.7719400417897 0  499.9050767571306 256.8885855596534 0  499.9050767559877 243.1114143988867 0  499.6203791069493 236.2280598860241 0  499.1461232485393 229.3551635941651 0  498.4826693235677 222.4979446979962 0  497.6305211491849 215.6616104719064 0  496.5903258357701 208.8513523404629 0  495.3628732906988 202.0723419043604 0  493.9490956264813 195.3297270628552 0  492.3500664487791 188.6286280724281 0  490.5670000344809 181.9741336371959 0  488.6012504175981 175.3712970824318 0  486.4543103623226 168.8251325157939 0  484.1278102222298 162.3406109960628 0  481.6235167152198 155.9226567951971 0  478.9433315621651 149.5761436051346 0  476.0892900516498 143.3058908657982 0  473.063559513628 137.1166601437124 0  469.8684376406648 131.0131514433083 0  466.5063507675389 124.9999996907064 0  462.9798520124137 119.0817711822745 0  459.2916193464549 113.2629601339176 0  455.4444535642773 107.5479852733717 0  451.4412761528674 101.9411864767781 0  447.2851270583545 96.44682145403524 0  442.9791624165781 91.06906256805769 0  438.5266521117469 85.81199360630404 0  433.9309773156125 80.67960671046254 0  429.1956279150353 75.67579933888632 0  424.3241998888952 70.80437133373906 0  419.3203925223282 66.06902197812161 0  414.1880056411937 61.47334723289828 0  408.9309366751728 57.0208369601728 0  403.5531778009394 52.71487236176898 0  398.058812796452 48.55872331295853 0  392.4520140187753 44.55554594490843 0  386.7370391799677 40.70838020528396 0  380.9182281475119 37.02014757560744 0  374.9999996718656 33.49364886444181 0  368.9868479340393 30.13156202237255 0  362.8833392380029 26.93644017348339 0  356.6941085456942 23.91070967062674 0  350.4238558420009 21.0566681953261 0  344.0773426899492 18.37648307566465 0  337.6593885328982 15.87218960140942 0  331.1748670549786 13.54568949032341 0  324.6287025315056 11.39874946165088 0  318.0258660010876 9.432999863235466 0  311.3713716017894 7.649933468721599 0  304.6702726190621 6.050904302234756 0  297.9276578269805 4.637126656823085 0  291.148647441857 3.409674127905504 0  284.3383893425031 2.369478825079682 0  277.502055159398 1.517330660648639 0  270.6448362875833 0.853876741662134 0  263.7719400401456 0.3796208889774277 0  256.8885855592052 0.09492324285704967 0  243.1114143979462 0.09492324403817065 0  236.2280598850882 0.3796208931023841 0  229.3551635938215 0.8538767514891958 0  222.4979446968584 1.517330676558146 0  215.6616104703111 2.369478851036291 0  208.8513523382973 3.409674164591252 0  202.0723419066374 4.637126708856528 0  195.3297270659513 6.050904372824903 0  188.628628074828 7.649933550613184 0  181.9741336377093 9.432999965373938 0  175.3712970793675 11.39874958336037 0  168.8251325057572 13.54568964112298 0  162.340610986655 15.87218978129263 0  155.9226567874317 18.37648328793418 0  149.576143602509 21.05666843898663 0  143.3058908718157 23.91070994551046 0  137.1166601505524 26.93644048291054 0  131.0131514451933 30.13156235831508 0  124.9999996848412 33.49364923584736 0  119.0817711715717 37.0201479941652 0  113.2629601211624 40.70838066187849 0  107.5479852622251 44.55554644345162 0  101.9411864693332 48.55872385260452 0  96.44682143286516 52.71487295812284 0  91.06906254351222 57.02083760363669 0  85.81199358272519 61.4733479087879 0  80.67960667988106 66.06902271253972 0  75.67579930062769 70.80437212218331 0  70.80437129287643 75.67580015310926 0  66.06902193673014 80.67960752263491 0  61.47334718684866 85.81199441168215 0  57.02083692524275 91.0690633672404 0  52.71487232786438 96.44682224262129 0  48.55872328070024 101.941187247437 0  44.55554591578033 107.5479860232332 0  40.7083801742321 113.2629608675606 0  37.02014754791168 119.0817718975441 0  33.49364883372994 125.000000381329 0  30.13156199866361 131.0131521097709 0  26.9364401549829 137.1166607985551 0  23.91070965524918 143.3058914868915 0  21.05666818346614 149.576144185037 0  18.37648306853811 155.9226573275967 0  15.8721895918909 162.3406114925245 0  13.54568948170046 168.8251329701392 0  11.39874945301878 175.3712974960928 0  9.432999857087736 181.9741340206533 0  7.649933466342702 188.6286284076045 0  6.050904301250966 195.3297273853278 0  4.637126656808988 202.0723421730917 0  3.409674127767772 208.8513525589684 0  2.369478824521138 215.6616106615248 0  1.517330660909465 222.4979448382452 0  0.8538767414496533 229.355163714981 0  0.3796208887135322 236.2280599646376 0  0.09492324266324204 243.1114144478261 0  0.0949232442452228 256.8885856095658 0  0.3796208935834784 263.7719401236316 0  0.8538767530323526 270.6448364248016 0  1.517330679476544 277.5020553295092 0  2.369478854618649 284.3383895555228 0  3.409674170191892 291.1486476952655 0  4.6371267162381 297.9276581311522 0  6.050904381420935 304.6702729724059 0  7.649933562385399 311.3713719716595 0  9.43299997979841 318.0258664133013 0  11.3987495994252 324.6287029719946 0  13.54568965885832 331.174867545904 0  15.87218979367188 337.6593890464085 0  18.37648329843151 344.0773432384132 0  21.05666844777872 350.423856417535 0  23.91070995156048 356.6941091410045 0  26.93644048988043 362.8833398632205 0  30.13156235982007 368.9868485575877 0  33.49364924138357 375.0000003247478 0  37.0201480006036 380.9182288389023 0  40.70838066758398 386.7370398875706 0  44.55554644477201 392.4520147396792 0  48.55872386086904 398.0588135419111 0  52.71487295981296 403.5531785693063 0  57.02083760525949 408.9309374584583 0  61.47334790862246 414.1880064170849 0  66.06902271205095 419.320393319588 0  70.80437211216579 424.3242006890749 0  75.67580013809859 429.195628692521 0  80.6796075127923 433.930978054209 0  85.81199439754931 438.5266528008431 0  91.06906334717917 442.9791630582355 0  96.44682221438322 447.2851276501571 0  101.9411872243843 451.441276702356 0  107.5479859945825 455.4444540643537 0  113.2629608446994 459.2916198108319 0  119.0817718768376 462.9798524393601 0  125.0000003647644 466.5063511567065 0  131.0131521012763 469.8684379967393 0  137.1166607840049 473.0635598376539 0  143.3058914748804 476.0892903390826 0  149.5761441732679 478.9433318113714 0  155.9226573130112 481.6235169255377 0  162.3406114779862 484.1278104026658 0  168.8251329570439 486.4543105138039 0  175.3712974805475 488.601250542119 0  181.9741340135204 490.5670001408953 0  188.6286284005059 492.3500665318597 0  195.3297273788229 493.9490956972913 0  202.0723421640089 495.3628733414168 0  208.8513525529672 496.5903258712308 0  215.6616106544547 497.6305211744985 0  222.4979448327038 498.4826693384772 0  229.3551637102845 499.1461232581612 0  236.2280599621369 499.6203791111485 0  243.1114144470173 499.9050767573145 0  155.2373389820306 474.8197567317462 0  25.36256300907667 153.9152755065208 0  432.3709625126712 412.6214396304305 0  6.013151705810699 246.637913163471 0  246.6379131630491 493.986848294322 0  338.6995838441862 22.68244767887072 0  477.3175523131281 338.6995838660569 0  493.9868482700757 246.6379131399102 0  246.6201155078769 6.218451882810491 0  417.6179310263282 72.7156044707053 0  102.2232990934413 445.0100869616822 0  63.66330858966404 92.20354579482142 0  391.3105220491464 50.73522820883105 0  72.79295043967942 418.0702734974704 0  448.290574428537 108.25674339002 0  402.4604651193511 440.7462829841712 0  97.55317348421397 59.11376320116034 0  136.7376477664901 33.58246472647134 0  363.3288394375288 465.6947312928271 0  44.0678766556007 381.0860953771871 0  469.6905266180034 142.3890690100806 0  22.68244791668644 338.6995843487432 0  338.699584349159 477.317552078365 0  173.389488083762 18.6681884918202 0  483.4809734778481 179.7121987795732 0  13.50237455842738 306.4709525540879 0  305.9825168523021 487.24416992
[...]
<PointData  Vectors="f_12"> 
<DataArray  type="Float64"  Name="f_12"  NumberOfComponents="3" format="ascii">5.6807053598898472e-01 5.0930606625486785e-01 5.4291979200853524e-01  5.7739884495613591e-01 4.2821911459689038e-01 6.2731964188719680e-01  5.5792161417794184e-01 5.2760035848251596e-01 5.0098745669798528e-01  5.7374529778802208e-01 4.6539465209312608e-01 5.9122888916103622e-01  5.5775511283516810e-01 5.2774006886244540e-01 5.0039983888026618e-01  5.5760185600869816e-01 5.2786493796936163e-01 4.9986109374200083e-01  5.5745625110267816e-01 5.2798034868930466e-01 4.9935110038962111e-01  5.5732256227401678e-01 5.2808362497924466e-01 4.9888436586167539e-01  5.5719906275036979e-01 5.2817662254201048e-01 4.9845459615180304e-01  5.5708600336042691e-01 5.2825982774918523e-01 4.9806224037331470e-01  5.5698336528749215e-01 5.2833374562145952e-01 4.9770697519316592e-01  5.5689079133448716e-01 5.2839907551350174e-01 4.9738730957202898e-01  5.5680880145918199e-01 5.2845586660108224e-01 4.9710479691148646e-01  5.5673785173104351e-01 5.2850417208729006e-01 4.9686082028792394e-01  5.5668136556132064e-01 5.2854203258681443e-01 4.9666692531445861e-01  5.5662808015287379e-01 5.2857735758452040e-01 4.9648423948531456e-01  5.5659591906419148e-01 5.2859828526704966e-01 4.9637423529195285e-01  5.5656856720517167e-01 5.2861594420219826e-01 4.9628077298297535e-01  5.5655376521559319e-01 5.2862525974730168e-01 4.9623037492029626e-01  5.5654956412745238e-01 5.2862761965607552e-01 4.9621629893993757e-01  5.5655546747196816e-01 5.2862338258642960e-01 4.9623681289281502e-01  5.5657640657438323e-01 5.2860918210265895e-01 4.9630892063094911e-01  5.5660928795896580e-01 5.2858700485874266e-01 4.9642203428519749e-01  5.5664971656269457e-01 5.2855966278711008e-01 4.9656111127670621e-01  5.5670238186718235e-01 5.2852381799562587e-01 4.9674238822483391e-01  5.5676945176847059e-01 5.2847764014901133e-01 4.9697352154232871e-01  5.5685140389206556e-01 5.2842046279840615e-01 4.9725633798418561e-01  5.5694093541803946e-01 5.2835696603380089e-01 4.9756587831978899e-01  5.5704256147672981e-01 5.2828351773046534e-01 4.9791799643295570e-01  5.5716106450020930e-01 5.2819606203532565e-01 4.9832959419157913e-01  5.5728886376949505e-01 5.2809949240598553e-01 4.9877475888130490e-01  5.5743078099509402e-01 5.2798943554188604e-01 4.9927068661566032e-01  5.5758591306696181e-01 5.2786584773134382e-01 4.9981466953131343e-01  5.5775199974657397e-01 5.2772965169348385e-01 5.0039925652104911e-01  5.5793585187980443e-01 5.2757408048965115e-01 5.0104911742277902e-01  5.5813202909565152e-01 5.2740255130642111e-01 5.0174575143825773e-01  5.5833840956505543e-01 5.2721592231370129e-01 5.0248215037857658e-01  5.5856239249898876e-01 5.2700595298437103e-01 5.0328567836445703e-01  5.5880430272027326e-01 5.2677041133428393e-01 5.0415867049613183e-01  5.5905750248809261e-01 5.2651421639830531e-01 5.0507805971739961e-01  5.5932199825073525e-01 5.2623578372859270e-01 5.0604484043312492e-01  5.5960467124650115e-01 5.2592578040686444e-01 5.0708545648533188e-01  5.5990514576901640e-01 5.2558227668949498e-01 5.0819991993552305e-01  5.6021897581617763e-01 5.2520730894673984e-01 5.0937373311295275e-01  5.6054996828558301e-01 5.2479385669267653e-01 5.1062261869291792e-01  5.6089671199572255e-01 5.2434083845040513e-01 5.1194303940208830e-01  5.6125885351179439e-01 5.2384526795425423e-01 5.1333586415605781e-01  5.6163591811039160e-01 5.2330421037371444e-01 5.1480172396295709e-01  5.6203460087555224e-01 5.2270351704159057e-01 5.1636937934914606e-01  5.6244720113937108e-01 5.2205102570787831e-01 5.1801116601543706e-01  5.6287673448260311e-01 5.2133578428245875e-01 5.1974323821679536e-01  5.6332247785885992e-01 5.2055556528177616e-01 5.2156484397716274e-01  5.6378457035544249e-01 5.1970270634029470e-01 5.2348178284219393e-01  5.6426586716321070e-01 5.1876589834756615e-01 5.2550990898410965e-01  5.6476260772004794e-01 5.1774481834742014e-01 5.2763866374638713e-01  5.6527386799847024e-01 5.1663305802852233e-01 5.2987005316441649e-01  5.6580280337791067e-01 5.1541607201285966e-01 5.3222300184451710e-01  5.6634642335141439e-01 5.1408979641486130e-01 5.3469232023855429e-01  5.6690311703204277e-01 5.1265084705648922e-01 5.3727511848517162e-01  5.6746873413528531e-01 5.1110160902276591e-01 5.3996018066151974e-01  5.6866145623617537e-01 5.0746764345369155e-01 5.4587515207858617e-01  5.6926658594023916e-01 5.0543416425133625e-01 5.4900919138815396e-01  5.6987881982530186e-01 5.0322240701876275e-01 5.5228957752691954e-01  5.7050163163463163e-01 5.0080601267852343e-01 5.5574364067257453e-01  5.7112622166912863e-01 4.9817806402727127e-01 5.5935545872459969e-01  5.7175154116091276e-01 4.9533268173542788e-01 5.6312422945611507e-01  5.7237401215389994e-01 4.9223089883862930e-01 5.6707165593597675e-01  5.7299007926476653e-01 4.8886528996523915e-01 5.7119249798564342e-01  5.7359369724351028e-01 4.8521897878019327e-01 5.7548405091753052e-01  5.7417931308748171e-01 4.8127030084813299e-01 5.7994804573597891e-01  5.7474449921624371e-01 4.7697391441307385e-01 5.8461043687514391e-01  5.7527594710283803e-01 4.7234690915629435e-01 5.8942501433186101e-01  5.7577091070094022e-01 4.6733770385741535e-01 5.9442063840608184e-01  5.7621858989579933e-01 4.6192212874194355e-01 5.9958642033621889e-01  5.7660876841953213e-01 4.5608610809101008e-01 6.0490343954870363e-01  5.7692907103713786e-01 4.4981191314594221e-01 6.1035081884564013e-01  5.7716854142814999e-01 4.4308531903947518e-01 6.1590504258031620e-01  5.7731310261796298e-01 4.3588316247489417e-01 6.2154186003583622e-01  5.7734946637582663e-01 4.2818822327822414e-01 6.2723135474364156e-01  5.7726412316396092e-01 4.2001059663436408e-01 6.3292059052745597e-01  5.7704516028863950e-01 4.1139565703419045e-01 6.3853361877897896e-01  5.7666959344985202e-01 4.0224215103286676e-01 6.4406906472981773e-01  5.7612963869766975e-01 3.9263187392278487e-01 6.4942879117195784e-01  5.7541351418559039e-01 3.8259262054641746e-01 6.5454052314226718e-01  5.7450704668208585e-01 3.7214005518804588e-01 6.5933005583082838e-01  5.7340139449256855e-01 3.6132473711993074e-01 6.6371029619388844e-01  5.7208841094397833e-01 3.5019062172780846e-01 6.6759682391156105e-01  5.7056264568095716e-01 3.3879421077923166e-01 6.7090492864379470e-01  5.6882091636984400e-01 3.2718508661124662e-01 6.7354899516128020e-01  5.6685870231096780e-01 3.1542524262841537e-01 6.7544215129405349e-01  5.6468070539227710e-01 3.0359603996200574e-01 6.7650008404243456e-01  5.6229412661712685e-01 2.9178304461851218e-01 6.7664594967720415e-01  5.5971840238984927e-01 2.8012035649855405e-01 6.7582533830887892e-01  5.5694199718558013e-01 2.6859019944948798e-01 6.7396107207809297e-01  5.5399476164697659e-01 2.5733764753482113e-01 6.7102872744084729e-01  5.5096310268496185e-01 2.4667525737681956e-01 6.6711024989895817e-01  5.4786617156526440e-01 2.3662359851659501e-01 6.6224083683908941e-01  5.4474568326607509e-01 2.2726405897716104e-01 6.5652573577484519e-01  5.4177447992150007e-01 2.1899801802827967e-01 6.5038755217838584e-01  5.3900598551976064e-01 2.1184049470750885e-01 6.4408059757057334e-01  5.3645868288347776e-01 2.0569906777785410e-01 6.3779684001650772e-01  5.3442729880643114e-01 2.0108472593068780e-01 6.3247511155821723e-01  5.3295174586675642e-01 1.9788800446892968e-01 6.2843660594169637e-01  5.3222005824251584e-01 1.9637449760711406e-01 6.2636952476320529e-01  5.3234393896410104e-01 1.9669083682195679e-01 6.2669942987166805e-01  5.3348216540739113e-01 1.9921292451029166e-01 6.2983818589525820e-01  5.3570737146039626e-01 2.0433947382557635e-01 6.3573829113551872e-01  5.3906200142053784e-01 2.1265371143273987e-01 6.4398905451595301e-01  5.4359460556622474e-01 2.2509435641068004e-01 6.5385270468046097e-01  5.4914321277000688e-01 2.4242706852645696e-01 6.6366838512138038e-01  5.5535073717637529e-01 2.6508719994161811e-01 6.7135816841313056e-01  5.6165875274982990e-01 2.9304071473455495e-01 6.7450280548367803e-01  5.6744750465336535e-01 3.2558895801227422e-01 6.7128866828293954e-01  5.7204874180309084e-01 3.6144060939247530e-01 6.6068085277947219e-01  5.7483382927439319e-01 3.9826114441577037e-01 6.4277997953935373e-01  5.7543114625758540e-01 4.3376913977944920e-01 6.1892844695867466e-01  5.6990488677516116e-01 4.8992881158623119e-01 5.6287185851617527e-01  5.6491676532925794e-01 5.1060537262409189e-01 5.3383106074926079e-01  5.5892948173398427e-01 5.2140508376428119e-01 5.0878535426545857e-01  5.5314977078413319e-01 5.2628946400395427e-01 4.8800678105875772e-01  5.4817373815375126e-01 5.2699894520699375e-01 4.7194517878107178e-01  5.4453370368264498e-01 5.2560481709769502e-01 4.6112170796388552e-01  5.4243744516845738e-01 5.2413076639665324e-01 4.5517453124245516e-01  5.4206973777851353e-01 5.2382392615179907e-01 4.5415220228004582e-01  5.4338850232819380e-01 5.2487463845567650e-01 4.5783598402950082e-01  5.4625898749790314e-01 5.2652723273496516e-01 4.6611025072721257e-01  5.5054051866900955e-01 5.2722272337426512e-01 4.7925705658527584e-01  5.5576433874644882e-01 5.2490543859486205e-01 4.9688545968773573e-01  5.6137871511509740e-01 5.1785855645357770e-01 5.1844973006477058e-01  5.6674947567094269e-01 5.0509805418670561e-01 5.4289718439496082e-01  5.7127197295653676e-01 4.8607955718899576e-01 5.6925616388361400e-01  5.7440531799791328e-01 4.6160220565607496e-01 5.9567012495662985e-01  5.7578152004454042e-01 4.3304557471844984e-01 6.2021063002457877e-01  5.7537988642643423e-01 4.0235683730018762e-01 6.4113956357879631e-01  5.7337058316514888e-01 3.7133218222132758e-01 6.5730429418657554e-01  5.7012060557760258e-01 3.4171447451529330e-01 6.6816077548024477e-01  5.6605887664518240e-01 3.1474412912002064e-01 6.7387612242682082e-01  5.6171673264717159e-01 2.9151285805455979e-01 6.7530798550833537e-01  5.5756403854169645e-01 2.7263655700595857e-01 6.7369420473666841e-01  5.5390084429132425e-01 2.5795701562486201e-01 6.7044189685440847e-01  5.5090854640669740e-01 2.4706647284509733e-01 6.6671830777608410e-01  5.4869858024911167e-01 2.3956836786157620e-01 6.6342250888223064e-01  5.4727331448513783e-01 2.3494603974169487e-01 6.6107405044992573e-01  5.4660111453221072e-01 2.3279519110072927e-01 6.5992060558932375e-01  5.4658785092415374e-01 2.3269246354384904e-01 6.5992583598670651e-01  5.4713748052779021e-01 2.3432482631847190e-01 6.6092904124380047e-01  5.4814073262912810e-01 2.3740994967854312e-01 6.6267469412141178e-01  5.4950962309670881e-01 2.4176282329881527e-01 6.6491459419087595e-01  5.5113098900607194e-01 2.4712618331225603e-01 6.6734945203684659e-01  5.5293305484375055e-01 2.5335354389990900e-01 6.6978486079893751e-01  5.5477487054276109e-01 2.6005706673627588e-01 6.7193281029644614e-01  5.5665068813144092e-01 2.6724329115831791e-01 6.7377119533545293e-01  5.5851122558402455e-01 2.7477144734691927e-01 6.7520315626303540e-01  5.6033170219735706e-01 2.8256528845042078e-01 6.7619858606714045e-01  5.6209521635791615e-01 2.9056983981799578e-01 6.7673673656152600e-01  5.6378346463017581e-01 2.9871776384290105e-01 6.7681175741242705e-01  5.6537235761226312e-01 3.0688834417728794e-01 6.7643783464418750e-01  5.6686459267297662e-01 3.1508321752975088e-01 6.7563225435913821e-01  5.6827264102341990e-01 3.2337398205014145e-01 6.7439942520720531e-01  5.6957680559894197e-01 3.3163117291337979e-01 6.7277379841003582e-01  5.7077664126859762e-01 3.3984396524217708e-01 6.7077630851181291e-01  5.7187767184124194e-01 3.4802840499740545e-01 6.6842297128540118e-01  5.7288209213053021e-01 3.5619397677377423e-01 6.6572477086757220e-01  5.7377104627017583e-01 3.6418267583717512e-01 6.6274606661010427e-01  5.7456312044156266e-01 3.7210915239871423e-01 6.5947601132666789e-01  5.7525130763451315e-01 3.7986323033395608e-01 6.5597316354450230e-01  5.7583765444696333e-01 3.8748385098546623e-01 6.5223783685999315e-01  5.7632553502481465e-01 3.9489632642844591e-01 6.4833051645667117e-01  5.7671430750570207e-01 4.0206145964879675e-01 6.4429346446482560e-01  5.7701085276491948e-01 4.0899154022258360e-01 6.4014155164446762e-01  5.7721993429384100e-01 4.1567271579063048e-01 6.3590636125636679e-01  5.7734752144244250e-01 4.2208058517990915e-01 6.3162621272659225e-01  5.7738034938505145e-01 4.3407905307027234e-01 6.2301436515277575e-01  5.7729829720996562e-01 4.3964621497489359e-01 6.1874117606374113e-01  5.7715811964878072e-01 4.4494544527861551e-01 6.1450118482794369e-01  5.7696716897850764e-01 4.4996805884288910e-01 6.1032081969145002e-01  5.7673063211603126e-01 4.5472196328807285e-01 6.0621142689211127e-01  5.7645397158342659e-01 4.5921833817822361e-01 6.0218039554598923e-01  5.7614230058666138e-01 4.6346371277209675e-01 5.9823789288552243e-01  5.7580051626536422e-01 4.6747005912874978e-01 5.9438859048670889e-01  5.7543275344342582e-01 4.7124790823452845e-01 5.9063657919975077e-01  5.7504301209744391e-01 4.7480769276281959e-01 5.8698492383227507e-01  5.7463480517198906e-01 4.7815746428136846e-01 5.8343770445338128e-01  5.7421206985769313e-01 4.8131113334407583e-01 5.7999435766216356e-01  5.7377589031159926e-01 4.8428491876305879e-01 5.7664651161051583e-01  5.7332905019730784e-01 4.8708894890120352e-01 5.7339383618431006e-01  5.7287653094376711e-01 4.8971695133526594e-01 5.7025401693518818e-01  5.7241508364952676e-01 4.9220466553570191e-01 5.6719218353643408e-01  5.7194953801418702e-01 4.9454616985380756e-01 5.6422532898327304e-01  5.7148481718033151e-01 4.9673574626674027e-01 5.6137017981906467e-01  5.7101770272239316e-01 4.9879887223580038e-01 5.5860025957762072e-01  5.7055063810348738e-01 5.0074398598549885e-01 5.5591466032012493e-01  5.7008433072659559e-01 5.0257399206978537e-01 5.5331379550057025e-01  5.6962069050200737e-01 5.0429388673585729e-01 5.5079872438333377e-01  5.6915939214602307e-01 5.0591473744097948e-01 5.4836030706765060e-01  5.6870133891970864e-01 5.0744043627860358e-01 5.4599817868141243e-01  5.6824905983077534e-01 5.0887145744800111e-01 5.4371867582171929e-01  5.6780180857194351e-01 5.1021672814293317e-01 5.4151323598311008e-01  5.6735820243370516e-01 5.1148758135302308e-01 5.3936978662758528e-01  5.6692357938931692e-01 5.1267384537896721e-01 5.3731023317451676e-01  5.6649344367300203e-01 5.1379316838844702e-01 5.3530952579160129e-01  5.6607016650185726e-01 5.1484522700435142e-01 5.3337420955507275e-01  5.6565441732140298e-01 5.1583242863123169e-01 5.3150454728769436e-01  5.6524611183205153e-01 5.1675915359620406e-01 5.2969710493819977e-01  5.6484561178842918e-01 5.1762883104665980e-01 5.2795043864869129e-01  5.6445248044448437e-01 5.1844581392807554e-01 5.2626022725750665e-01  5.6406590847841642e-01 5.1921498213438289e-01 5.2462073297984313e-01  5.6369014700322495e-01 5.1993155120909218e-01 5.2304736220516634e-01  5.6332397023648828e-01 5.2060089223345907e-01 5.2153294356172064e-01  5.6296222194462109e-01 5.2123495203489312e-01 5.2005436457733278e-01  5.6261130392071901e-01 5.2182511792154296e-01 5.1863598868009286e-01  5.6227099197582342e-01 5.2237419973686328e-01 5.1727531239586833e-01  5.6193835962778693e-01 5.2288959157571469e-01 5.1595879612655215e-01  5.6161519891735323e-01 5.2337074612390089e-01 5.1469198153154561e-01  5.6130015739058103e-01 5.2382116819259528e-01 5.1346872103164787e-01  5.6099668624896815e-01 5.2423867638272625e-01 5.1230039246736803e-01  5.6070117205774217e-01 5.2462937702270096e-01 5.1117257439168273e-01  5.6041589619565724e-01 5.2499230644720540e-01 5.1009251383768728e-01  5.6013942481296253e-01 5.2533096574209448e-01 5.0905368725995603e-01  5.5987121852322463e-01 5.2564747697211922e-01 5.0805315562375508e-01  5.5961524483539427e-01 5.2593817117781971e-01 5.0710522650908141e-01  5.5936977594848503e-01 5.2620696173350423e-01 5.0620210354494488e-01  5.5913144669096304e-01 5.2645880128182809e-01 5.0533068068613773e-01  5.5890469842821566e-01 5.2669003740298648e-01 5.0450653733617279e-01  5.5868890118852998e-01 5.2690250604370725e-01 5.0372672230923909e-01  5.5848246053972039e-01 5.2709907993813643e-01 5.0298457788575046e-01  5.5828535691375836e-01 5.2728069779678477e-01 5.0227957194954986e-01  5.5809987594271560e-01 5.2744619368035828e-01 5.0161924547540659e-01  5.6147886595486929e-01 5.2356758290493977e-01 5.1416147821233626e-01  5.6726156401410444e-01 3.1737696709685415e-01 6.7532853568764106e-01  5.5788731495220623e-01 5.2761580916044071e-01 5.0087718699466555e-01  5.7737955988682399e-01 4.2500806674213709e-01 6.2959527643948798e-01  5.5804260380724402e-01 5.2749619579381490e-01 5.0141602667360097e-01  5.3146084604468546e-01 1.9493112372321361e-01 6.2417975243443291e-01  5.6148446890131876e-01 5.2352411646646857e-01 5.1421144285821585e-01  5.6839188647419780e-01 5.0833247275668192e-01 5.4450868099940686e-01  5.7220623706626994e-01 4.7884400929823723e-01 5.7726667421382349e-01  5.6774189725388269e-01 3.2061358998690470e-01 6.7468673219651520e-01  5.6468263340552405e-01 5.1797120051875900e-01 5.2724736873761568e-01  5.4814658375997660e-01 2.3749784444525290e-01 6.6267159856994784e-01  5.5490354450003998e-01 2.6073684660275342e-01 6.7202965950486149e-01  5.6714731800575924e-01 5.1206944601874382e-01 5.3836627210527099e-01  5.7639316052697775e-01 3.9703947538703732e-01 6.4702422687648431e-01  5.5701988859211260e-01 5.2830015078234105e-01 4.9783927970764635e-01  5.5151107224015505e-01 2.4946865759789114e-01 6.6745025551100279e-01  5.7570027801448698e-01 4.1605218083762113e-01 6.3228554382014479e-01  5.5660220929566573e-01 5.2859240426323750e-01 4.9639721351244770e-01  5.7030554173387016e-01 5.0171631383666404e-01 5.5454029834913776e-01  5.7707049772724717e-01 4.4615108720124685e-01 6.1340514533379054e-01  5.7357050974869839e-01 4.8560409272912691e-01 5.7512972570526888e-01  5.5661376591783662e-01 5.2858626433553257e-01 4.9643560757334476e-01  5.5379545520794593e-01 5.2621630639409223e-01 4.9003090062350041e-01  5.7454649377784983e-01 4.7853435212163065e-01 5.8293727214862523e-01  5.7563379024932748e-01 4.6923037633181525e-01 5.9265328168427933e-01  5.5689288287398819e-01 5.2839742196080763e-01 4.9739467721631397e-01  5.5976750479780080e-01 5.2576657948479089e-01 5.0766834564145291e-01  5.7415237576021283e-01 3.6791211972311216e-01 6.6123973170713357e-01  5.4522231301505797e-01 2.3025596223366546e-01 6.5689807400256328e-01  5.6406017554923471e-01 5.1917213124901285e-01 5.2463943493086140e-01  5.5917446956343642e-01 5.2639227384044351e-01 5.0550492515830436e-01  5.4316932587711908e-01 5.2471391035849990e-01 4.5722029895844685e-01  5.7213231848559853e-01 4.9346347048011674e-01 5.6551883452070195e-01  5.7686098413916242e-01 4.5222405815970163e-01 6.0838788709291791e-01  5.5729288715431902e-01 5.2810600600258895e-01 4.9878111368139477e-01  5.4285754875850301e-01 2.2201360338460496e-01 6.5267032058484153e-01  5.5921268887902975e-01 2.7775034616743755e-01 6.7562579055329453e-01  5.5882236976357047e-01 5.2677185678935790e-01 5.0420862511228481e-01  5.6282040500418273e-01 5.2147678301772538e-01 5.1947911141347247e-01  5.7655703998195096e-01 3.9900261034578172e-01 6.4604612956268659e-01  5.6921238254483497e-01 3.3838882667248682e-01 6.6810544207185152e-01  5.6604822377538522e-01 5.1482484838483422e-01 5.3333287603190960e-01  5.5678398197824164e-01 5.2846785090475623e-01 4.9702340697551789e-01  5.6270092218323842e-01 5.2163263192654730e-01 5.1903177852000548e-01  5.5553042999864966e-01 5.2466465201008694e-01 4.9638216920144851e-01  5.3327043890793135e-01 1.9900295294367834e-01 6.2920040272762301e-01  5.7023214217371276e-01 5.0187492988530447e-01 5.5423284139739959e-01  5.7265741276378668e-01 3.5487271673357867e-01 6.6602928011738993e-01  5.6057875460860573e-01 5.2478646879321011e-01 5.1070830576421999e-01  5.5849654294911411e-01 5.2706872469734767e-01 5.0304886394218540e-01  5.6847366191842574e-01 5.0816941612079447e-01 5.4484480561781656e-01  5.6316741132781600e-01 2.9927687996033731e-01 6.7499362228596249e-01  5.7170422407491794e-01 4.9571908683814792e-01 5.6270610576170021e-01  5.7128892828047628e-01 3.4359396974475703e-01 6.6973178258189703e-01  5.6009747311658686e-01 5.2535432279375638e-01 5.0891818858245530e-01  5.6588594151