<?xml version="1.0"?>
<VTKFile type="UnstructuredGrid"  version="0.1"  >
<UnstructuredGrid>
<Piece  NumberOfPoints="4940" NumberOfCells="9650">
<Points>
<DataArray  type="Float64"  NumberOfComponents="3"  format="ascii">500 250 0  0 250 0  250 500 0  250 0 0  256.8885856082646 499.9050767557906 0  263.7719401218049 499.6203791065173 0  270.6448364229772 499.1461232471188 0  277.5020553257866 498.4826693209355 0  284.3383895508592 497.6305211460281 0  291.1486476865662 496.5903258312597 0  297.9276581259182 495.3628732847843 0  304.6702729675493 493.9490956196674 0  311.3713719748657 492.3500664368026 0  318.0258664141369 490.5670000199653 0  324.6287029687753 488.6012504015818 0  331.1748675330201 486.4543103455647 0  337.6593890460416 484.1278102064655 0  344.0773432429536 481.6235166997244 0  350.4238564271474 478.9433315480048 0  356.694109139292 476.0892900492477 0  362.88333985546 473.0635595140469 0  368.9868485575419 469.8684376402048 0  375.0000003153078 466.5063507640667 0  380.9182288257928 462.9798520074548 0  386.7370398729688 459.2916193419558 0  392.4520147244077 455.444453565817 0  398.0588135356345 451.4412761437442 0  403.5531785622926 447.285127045646 0  408.9309374414144 442.9791624087773 0  414.1880064015299 438.5266521049243 0  419.3203932989752 433.9309773069245 0  424.324200661095 429.1956279150535 0  429.1956286596235 424.3241998957182 0  433.9309780058756 419.3203925397119 0  438.5266527445345 414.1880056671062 0  442.9791630130591 408.9309367076756 0  447.2851276060475 403.5531778422888 0  451.4412766621026 398.0588128303826 0  455.4444540361634 392.4520140460735 0  459.2916197786263 386.7370392045948 0  462.9798524073514 380.9182281752347 0  466.5063511234856 374.9999996927758 0  469.8684379657123 368.9868479560565 0  473.0635598144817 362.8833392617846 0  476.0892903190255 356.6941085676214 0  478.9433317963513 350.4238558609745 0  481.6235169154735 344.0773427117675 0  484.12781039012 337.6593885555221 0  486.4543105028062 331.1748670749914 0  488.601250531677 324.6287025528375 0  490.5670001317469 318.0258660188321 0  492.3500665291326 311.3713716102628 0  493.949095695951 304.6702726271575 0  495.3628733416623 297.9276578347343 0  496.5903258712341 291.1486474470129 0  497.6305211749058 284.3383893426084 0  498.4826693388848 277.502055163614 0  499.1461232580606 270.6448362909296 0  499.6203791109319 263.7719400417897 0  499.9050767571306 256.8885855596534 0  499.9050767559877 243.1114143988867 0  499.6203791069493 236.2280598860241 0  499.1461232485393 229.3551635941651 0  498.4826693235677 222.4979446979962 0  497.6305211491849 215.6616104719064 0  496.5903258357701 208.8513523404629 0  495.3628732906988 202.0723419043604 0  493.9490956264813 195.3297270628552 0  492.3500664487791 188.6286280724281 0  490.5670000344809 181.9741336371959 0  488.6012504175981 175.3712970824318 0  486.4543103623226 168.8251325157939 0  484.1278102222298 162.3406109960628 0  481.6235167152198 155.9226567951971 0  478.9433315621651 149.5761436051346 0  476.0892900516498 143.3058908657982 0  473.063559513628 137.1166601437124 0  469.8684376406648 131.0131514433083 0  466.5063507675389 124.9999996907064 0  462.9798520124137 119.0817711822745 0  459.2916193464549 113.2629601339176 0  455.4444535642773 107.5479852733717 0  451.4412761528674 101.9411864767781 0  447.2851270583545 96.44682145403524 0  442.9791624165781 91.06906256805769 0  438.5266521117469 85.81199360630404 0  433.9309773156125 80.67960671046254 0  429.1956279150353 75.67579933888632 0  424.3241998888952 70.80437133373906 0  419.3203925223282 66.06902197812161 0  414.1880056411937 61.47334723289828 0  408.9309366751728 57.0208369601728 0  403.5531778009394 52.71487236176898 0  398.058812796452 48.55872331295853 0  392.4520140187753 44.55554594490843 0  386.7370391799677 40.70838020528396 0  380.9182281475119 37.02014757560744 0  374.9999996718656 33.49364886444181 0  368.9868479340393 30.13156202237255 0  362.8833392380029 26.93644017348339 0  356.6941085456942 23.91070967062674 0  350.4238558420009 21.0566681953261 0  344.0773426899492 18.37648307566465 0  337.6593885328982 15.87218960140942 0  331.1748670549786 13.54568949032341 0  324.6287025315056 11.39874946165088 0  318.0258660010876 9.432999863235466 0  311.3713716017894 7.649933468721599 0  304.6702726190621 6.050904302234756 0  297.9276578269805 4.637126656823085 0  291.148647441857 3.409674127905504 0  284.3383893425031 2.369478825079682 0  277.502055159398 1.517330660648639 0  270.6448362875833 0.853876741662134 0  263.7719400401456 0.3796208889774277 0  256.8885855592052 0.09492324285704967 0  243.1114143979462 0.09492324403817065 0  236.2280598850882 0.3796208931023841 0  229.3551635938215 0.8538767514891958 0  222.4979446968584 1.517330676558146 0  215.6616104703111 2.369478851036291 0  208.8513523382973 3.409674164591252 0  202.0723419066374 4.637126708856528 0  195.3297270659513 6.050904372824903 0  188.628628074828 7.649933550613184 0  181.9741336377093 9.432999965373938 0  175.3712970793675 11.39874958336037 0  168.8251325057572 13.54568964112298 0  162.340610986655 15.87218978129263 0  155.9226567874317 18.37648328793418 0  149.576143602509 21.05666843898663 0  143.3058908718157 23.91070994551046 0  137.1166601505524 26.93644048291054 0  131.0131514451933 30.13156235831508 0  124.9999996848412 33.49364923584736 0  119.0817711715717 37.0201479941652 0  113.2629601211624 40.70838066187849 0  107.5479852622251 44.55554644345162 0  101.9411864693332 48.55872385260452 0  96.44682143286516 52.71487295812284 0  91.06906254351222 57.02083760363669 0  85.81199358272519 61.4733479087879 0  80.67960667988106 66.06902271253972 0  75.67579930062769 70.80437212218331 0  70.80437129287643 75.67580015310926 0  66.06902193673014 80.67960752263491 0  61.47334718684866 85.81199441168215 0  57.02083692524275 91.0690633672404 0  52.71487232786438 96.44682224262129 0  48.55872328070024 101.941187247437 0  44.55554591578033 107.5479860232332 0  40.7083801742321 113.2629608675606 0  37.02014754791168 119.0817718975441 0  33.49364883372994 125.000000381329 0  30.13156199866361 131.0131521097709 0  26.9364401549829 137.1166607985551 0  23.91070965524918 143.3058914868915 0  21.05666818346614 149.576144185037 0  18.37648306853811 155.9226573275967 0  15.8721895918909 162.3406114925245 0  13.54568948170046 168.8251329701392 0  11.39874945301878 175.3712974960928 0  9.432999857087736 181.9741340206533 0  7.649933466342702 188.6286284076045 0  6.050904301250966 195.3297273853278 0  4.637126656808988 202.0723421730917 0  3.409674127767772 208.8513525589684 0  2.369478824521138 215.6616106615248 0  1.517330660909465 222.4979448382452 0  0.8538767414496533 229.355163714981 0  0.3796208887135322 236.2280599646376 0  0.09492324266324204 243.1114144478261 0  0.0949232442452228 256.8885856095658 0  0.3796208935834784 263.7719401236316 0  0.8538767530323526 270.6448364248016 0  1.517330679476544 277.5020553295092 0  2.369478854618649 284.3383895555228 0  3.409674170191892 291.1486476952655 0  4.6371267162381 297.9276581311522 0  6.050904381420935 304.6702729724059 0  7.649933562385399 311.3713719716595 0  9.43299997979841 318.0258664133013 0  11.3987495994252 324.6287029719946 0  13.54568965885832 331.174867545904 0  15.87218979367188 337.6593890464085 0  18.37648329843151 344.0773432384132 0  21.05666844777872 350.423856417535 0  23.91070995156048 356.6941091410045 0  26.93644048988043 362.8833398632205 0  30.13156235982007 368.9868485575877 0  33.49364924138357 375.0000003247478 0  37.0201480006036 380.9182288389023 0  40.70838066758398 386.7370398875706 0  44.55554644477201 392.4520147396792 0  48.55872386086904 398.0588135419111 0  52.71487295981296 403.5531785693063 0  57.02083760525949 408.9309374584583 0  61.47334790862246 414.1880064170849 0  66.06902271205095 419.320393319588 0  70.80437211216579 424.3242006890749 0  75.67580013809859 429.195628692521 0  80.6796075127923 433.930978054209 0  85.81199439754931 438.5266528008431 0  91.06906334717917 442.9791630582355 0  96.44682221438322 447.2851276501571 0  101.9411872243843 451.441276702356 0  107.5479859945825 455.4444540643537 0  113.2629608446994 459.2916198108319 0  119.0817718768376 462.9798524393601 0  125.0000003647644 466.5063511567065 0  131.0131521012763 469.8684379967393 0  137.1166607840049 473.0635598376539 0  143.3058914748804 476.0892903390826 0  149.5761441732679 478.9433318113714 0  155.9226573130112 481.6235169255377 0  162.3406114779862 484.1278104026658 0  168.8251329570439 486.4543105138039 0  175.3712974805475 488.601250542119 0  181.9741340135204 490.5670001408953 0  188.6286284005059 492.3500665318597 0  195.3297273788229 493.9490956972913 0  202.0723421640089 495.3628733414168 0  208.8513525529672 496.5903258712308 0  215.6616106544547 497.6305211744985 0  222.4979448327038 498.4826693384772 0  229.3551637102845 499.1461232581612 0  236.2280599621369 499.6203791111485 0  243.1114144470173 499.9050767573145 0  155.2373389820306 474.8197567317462 0  25.36256300907667 153.9152755065208 0  432.3709625126712 412.6214396304305 0  6.013151705810699 246.637913163471 0  246.6379131630491 493.986848294322 0  338.6995838441862 22.68244767887072 0  477.3175523131281 338.6995838660569 0  493.9868482700757 246.6379131399102 0  246.6201155078769 6.218451882810491 0  417.6179310263282 72.7156044707053 0  102.2232990934413 445.0100869616822 0  63.66330858966404 92.20354579482142 0  391.3105220491464 50.73522820883105 0  72.79295043967942 418.0702734974704 0  448.290574428537 108.25674339002 0  402.4604651193511 440.7462829841712 0  97.55317348421397 59.11376320116034 0  136.7376477664901 33.58246472647134 0  363.3288394375288 465.6947312928271 0  44.0678766556007 381.0860953771871 0  469.6905266180034 142.3890690100806 0  22.68244791668644 338.6995843487432 0  338.699584349159 477.317552078365 0  173.389488083762 18.6681884918202 0  483.4809734778481 179.7121987795732 0  13.50237455842738 306.4709525540879 0  305.9825168523021 487.24416992
[...]
<PointData  Vectors="f_12"> 
<DataArray  type="Float64"  Name="f_12"  NumberOfComponents="3" format="ascii">4.8682474956626615e-01 2.4841434881974489e-01 3.8650236651169717e-01  4.9639420379803212e-01 3.1434944516546620e-01 3.9898305570536935e-01  4.8484401640068270e-01 2.2358591528139765e-01 3.8942804039723622e-01  5.2922944476564271e-01 2.4947415245611426e-01 5.9197414394236525e-01  4.8483615022072662e-01 2.2305546306397472e-01 3.8968240668448084e-01  4.8483002250318236e-01 2.2258304944219212e-01 3.8991362687463910e-01  4.8482491503061326e-01 2.2211076846096281e-01 3.9015053591122117e-01  4.8482113474687616e-01 2.2168500101357655e-01 3.9036864038312113e-01  4.8481844991895146e-01 2.2128467994378204e-01 3.9057856429648175e-01  4.8481674614063647e-01 2.2091378693694005e-01 3.9077742709180641e-01  4.8481597063759657e-01 2.2057055137908019e-01 3.9096598398926996e-01  4.8481605910744435e-01 2.2024948116472853e-01 3.9114699469564596e-01  4.8481696124452833e-01 2.1995534183473170e-01 3.9131749964609447e-01  4.8481864812809594e-01 2.1969087690184302e-01 3.9147582763762317e-01  4.8482108785609596e-01 2.1949125834472985e-01 3.9160197120301776e-01  4.8482404700553738e-01 2.1924482288261715e-01 3.9175759032373680e-01  4.8482774990908278e-01 2.1912232930030071e-01 3.9184772758434255e-01  4.8483199124935067e-01 2.1896631687141446e-01 3.9195998335333687e-01  4.8483681348962887e-01 2.1885182363900998e-01 3.9205231461197232e-01  4.8484215597736197e-01 2.1875980454352406e-01 3.9213510698725446e-01  4.8484801389805970e-01 2.1868401171151738e-01 3.9221184068011350e-01  4.8485448393067626e-01 2.1866796946437109e-01 3.9225864852280629e-01  4.8486149235420983e-01 2.1868438578924981e-01 3.9229044862590445e-01  4.8486902750828381e-01 2.1868952645549328e-01 3.9233174286165168e-01  4.8487711112885068e-01 2.1872857708554730e-01 3.9235726122414472e-01  4.8488586939566608e-01 2.1881675597666120e-01 3.9235916302822038e-01  4.8489526181396642e-01 2.1896312188959646e-01 3.9233209231132177e-01  4.8490531379389623e-01 2.1909331586900507e-01 3.9231805863069180e-01  4.8491612233366993e-01 2.1924836292001790e-01 3.9229451407953581e-01  4.8492776803842691e-01 2.1947790736550965e-01 3.9223392692702297e-01  4.8494025106627386e-01 2.1970397922937210e-01 3.9218022473105796e-01  4.8495375417454106e-01 2.1997103105864660e-01 3.9210935675741360e-01  4.8496827266343667e-01 2.2027421051150742e-01 3.9202401572139839e-01  4.8498384144474088e-01 2.2058735328920440e-01 3.9193914598010876e-01  4.8500089812907038e-01 2.2097457140991322e-01 3.9182099999833614e-01  4.8501929596528653e-01 2.2138501114380207e-01 3.9169744599428108e-01  4.8503896423212556e-01 2.2179258437316654e-01 3.9158280276897056e-01  4.8506059867401191e-01 2.2227012699590609e-01 3.9143978063138063e-01  4.8508450499674871e-01 2.2282206663992551e-01 3.9126752877506404e-01  4.8511019555773061e-01 2.2338261898675160e-01 3.9110047924059888e-01  4.8513772587549064e-01 2.2394388710654292e-01 3.9094343181037111e-01  4.8516817012599106e-01 2.2457826376034140e-01 3.9076131139096143e-01  4.8520175569099810e-01 2.2528960518574531e-01 3.9055309284854606e-01  4.8523813322990905e-01 2.2601951491657574e-01 3.9034995233540676e-01  4.8527823280885313e-01 2.2681045081022844e-01 3.9013290444479404e-01  4.8532206260045724e-01 2.2765286053732628e-01 3.8990729225751969e-01  4.8536988722019958e-01 2.2853926880318939e-01 3.8967879679286788e-01  4.8542186544339339e-01 2.2946318792321199e-01 3.8945199204679526e-01  4.8548035938727063e-01 2.3049984771491142e-01 3.8919682512141451e-01  4.8554377856232306e-01 2.3157799077928862e-01 3.8894510518625491e-01  4.8561336490878709e-01 2.3270703238554954e-01 3.8869822955032285e-01  4.8568966000149588e-01 2.3391246999409468e-01 3.8844449673173603e-01  4.8577300638847382e-01 2.3516641511593162e-01 3.8820161386513985e-01  4.8586584501855506e-01 2.3653561137326684e-01 3.8794460854919105e-01  4.8596730962154766e-01 2.3796928232373715e-01 3.8769759549994953e-01  4.8607770678880791e-01 2.3945783463144724e-01 3.8746766694128743e-01  4.8620002165040110e-01 2.4105679258137289e-01 3.8723897505323401e-01  4.8633390510393704e-01 2.4273543757077565e-01 3.8702713908432407e-01  4.8647952734234762e-01 2.4448848095174572e-01 3.8683554250400354e-01  4.8663381428918223e-01 2.4624475792625430e-01 3.8668939412391223e-01  4.8701404221845629e-01 2.5043642514736070e-01 3.8638945453038337e-01  4.8722473999091270e-01 2.5258420938674675e-01 3.8631917456454024e-01  4.8745241468748884e-01 2.5478482096600830e-01 3.8630896460567460e-01  4.8770696895704641e-01 2.5718986927569643e-01 3.8632278567336065e-01  4.8798331403540679e-01 2.5967672081319126e-01 3.8640453716607037e-01  4.8828434464372739e-01 2.6227781025026875e-01 3.8654950615366035e-01  4.8861200769508195e-01 2.6496968040897728e-01 3.8678176363452799e-01  4.8896924210328552e-01 2.6778216376416580e-01 3.8709812308706609e-01  4.8935566330382818e-01 2.7067825042212701e-01 3.8751730793953709e-01  4.8977160371530037e-01 2.7363371082955745e-01 3.8805433744343365e-01  4.9022760926843223e-01 2.7674072895331114e-01 3.8870931317977303e-01  4.9071343049197758e-01 2.7985899525169577e-01 3.8950979467411379e-01  4.9123591101145142e-01 2.8302420425381780e-01 3.9046899566282223e-01  4.9180167822286169e-01 2.8628264227670414e-01 3.9159311321428364e-01  4.9240815520241277e-01 2.8957046807900583e-01 3.9290374916271303e-01  4.9305335094461167e-01 2.9283124679716277e-01 3.9442275499746360e-01  4.9373856900887120e-01 2.9605065639535127e-01 3.9616310678568945e-01  4.9446293197942526e-01 2.9918027896205979e-01 3.9814783664752462e-01  4.9522971390306125e-01 3.0221879283275693e-01 4.0039254341004460e-01  4.9603712515680021e-01 3.0512653996786415e-01 4.0290918510622709e-01  4.9686679879962342e-01 3.0771551664479246e-01 4.0571662322231522e-01  4.9774527198468083e-01 3.1017197740683289e-01 4.0883493701682072e-01  4.9864637570455234e-01 3.1224761109674071e-01 4.1228078156614850e-01  4.9957694588444990e-01 3.1401010178218824e-01 4.1604643129934815e-01  5.0052811601812752e-01 3.1534802859057459e-01 4.2015374055840643e-01  5.0149271729832146e-01 3.1620378393575466e-01 4.2460164783551430e-01  5.0246455676713009e-01 3.1653145665992188e-01 4.2938690851085587e-01  5.0343736399990857e-01 3.1629298702234143e-01 4.3450173685182170e-01  5.0441059743682715e-01 3.1551649829354095e-01 4.3992504018347289e-01  5.0537493371373665e-01 3.1413560620115372e-01 4.4565135176607840e-01  5.0632767588251193e-01 3.1218522639679763e-01 4.5164442323263559e-01  5.0726629085234787e-01 3.0968745361464584e-01 4.5787658762156475e-01  5.0818359073067032e-01 3.0662288423865414e-01 4.6432293435993005e-01  5.0909541289048299e-01 3.0318611800673229e-01 4.7093597777346508e-01  5.1000137599153883e-01 2.9947446548551071e-01 4.7764985034309837e-01  5.1088683343467989e-01 2.9536186811501713e-01 4.8446952632187767e-01  5.1177167931815182e-01 2.9106976737898660e-01 4.9135017409990561e-01  5.1266693467225799e-01 2.8683407447968423e-01 4.9819428096360502e-01  5.1355966830287891e-01 2.8250537886100718e-01 5.0502949221838167e-01  5.1446320779939025e-01 2.7821859450934089e-01 5.1183573722824649e-01  5.1538954348068655e-01 2.7430365523368799e-01 5.1846420653602121e-01  5.1632662243572303e-01 2.7056401948764536e-01 5.2497997752367898e-01  5.1727836955020035e-01 2.6714246771495687e-01 5.3131411335970768e-01  5.1824350483906834e-01 2.6402010275469889e-01 5.3747445840041286e-01  5.1921726407578150e-01 2.6125800632755064e-01 5.4340440686445723e-01  5.2019508181657914e-01 2.5883723038271039e-01 5.4909819818412808e-01  5.2117068141383438e-01 2.5677319768065310e-01 5.5452269228783035e-01  5.2213616353836201e-01 2.5505551231727980e-01 5.5965410739084231e-01  5.2308567043831355e-01 2.5361684369183785e-01 5.6451034080045581e-01  5.2401195443250859e-01 2.5243577884902840e-01 5.6907693616886801e-01  5.2490634909310696e-01 2.5151659581920588e-01 5.7332243468646438e-01  5.2575940474862393e-01 2.5083630429800152e-01 5.7722553914237507e-01  5.2656454598141833e-01 2.5034950533363531e-01 5.8079201207846742e-01  5.2732305195012208e-01 2.4997849072256934e-01 5.8407572772925764e-01  5.2802112420206659e-01 2.4973763778823321e-01 5.8701807738801115e-01  5.2866000849051231e-01 2.4957092819165125e-01 5.8966216930776949e-01  5.2971101276618815e-01 2.4944534735758814e-01 5.9388930907124793e-01  5.3020151636087898e-01 2.4925474302711917e-01 5.9591597855094991e-01  5.3052704126110051e-01 2.4927122173085967e-01 5.9717533939070644e-01  5.3080916024476577e-01 2.4917824875628594e-01 5.9832095395240292e-01  5.3101971628141975e-01 2.4903892923836313e-01 5.9920982104499132e-01  5.3114647374793833e-01 2.4887062984350253e-01 5.9978772282213255e-01  5.3119099948152226e-01 2.4865968704603555e-01 6.0006938408349231e-01  5.3116266133087287e-01 2.4837874306709215e-01 6.0010589389186453e-01  5.3105333337436345e-01 2.4804885084478240e-01 5.9985457793198349e-01  5.3090097830459182e-01 2.4759331919437083e-01 5.9950173392731898e-01  5.3061876293250709e-01 2.4719560874221538e-01 5.9861347608104498e-01  5.3027654335430174e-01 2.4672340191743031e-01 5.9752669088832777e-01  5.2986210204646544e-01 2.4622175963974904e-01 5.9616805559642216e-01  5.2938745665927456e-01 2.4566371793235475e-01 5.9459416890730887e-01  5.2883548909944511e-01 2.4511517015079884e-01 5.9269967420868230e-01  5.2820504284773950e-01 2.4462542253550126e-01 5.9044891584715198e-01  5.2751820372527780e-01 2.4414551723959710e-01 5.8794924816694549e-01  5.2677201236837545e-01 2.4371802011240115e-01 5.8516099024196766e-01  5.2597106235144353e-01 2.4336590623588847e-01 5.8208492664766365e-01  5.2511921310442866e-01 2.4312405295501657e-01 5.7871277393501508e-01  5.2421877291778018e-01 2.4304731130750035e-01 5.7501772685418351e-01  5.2327904173050754e-01 2.4315955621979043e-01 5.7101999332668252e-01  5.2231034388785680e-01 2.4344644477731825e-01 5.6676439714232518e-01  5.2131816682293330e-01 2.4395003910665070e-01 5.6224677543259693e-01  5.2030877506286155e-01 2.4472008413368038e-01 5.5746220529197665e-01  5.1929075972719219e-01 2.4577961973837920e-01 5.5243093384387065e-01  5.1827252195016038e-01 2.4716115148187243e-01 5.4716806548203811e-01  5.1726250313926248e-01 2.4887578583956049e-01 5.4170206985236646e-01  5.1626832150736068e-01 2.5094963049447350e-01 5.3605007553001760e-01  5.1529733669784139e-01 2.5338516954995338e-01 5.3024273832545576e-01  5.1435542064179574e-01 2.5618393300557957e-01 5.2430532819318454e-01  5.1344543874350257e-01 2.5930267424578290e-01 5.1827619683863424e-01  5.1257158272043091e-01 2.6273388347957594e-01 5.1218039243814795e-01  5.1173296564894644e-01 2.6644290472693294e-01 5.0603576054842792e-01  5.1093914359377557e-01 2.7047882373379384e-01 4.9985984361618846e-01  5.1018151103048848e-01 2.7471230996216606e-01 4.9369161306788517e-01  5.0945811107731243e-01 2.7908358314758519e-01 4.8756044177531410e-01  5.0876264973430929e-01 2.8350903009926098e-01 4.8149003025724207e-01  5.0808835720297774e-01 2.8790749368273216e-01 4.7550058485540925e-01  5.0742736841859482e-01 2.9217493947653028e-01 4.6962167211714817e-01  5.0679200887866604e-01 2.9643980076943632e-01 4.6383725464546383e-01  5.0616419794094403e-01 3.0045985768697836e-01 4.5821331804718329e-01  5.0552029021592071e-01 3.0402979254162960e-01 4.5276376263893953e-01  5.0488490255427809e-01 3.0737099824510467e-01 4.4747556966745672e-01  5.0425193412899494e-01 3.1038127313372432e-01 4.4238509991102132e-01  5.0361246298942319e-01 3.1298284701357582e-01 4.3749934192746159e-01  5.0294330775393836e-01 3.1495262742010255e-01 4.3284448975980505e-01  5.0230051333970738e-01 3.1675562387670536e-01 4.2840945490696469e-01  5.0163249202494198e-01 3.1796138599669788e-01 4.2420838811870670e-01  5.0097058910283088e-01 3.1881598401366390e-01 4.2024468792044051e-01  5.0028635889822892e-01 3.1907680864575988e-01 4.1652634288609008e-01  4.9961857287699968e-01 3.1909499071954528e-01 4.1303077455966258e-01  4.9896107713197912e-01 3.1879188159864735e-01 4.0977637873636868e-01  4.9830467182737331e-01 3.1811001450028881e-01 4.0675240325075024e-01  4.9765311399941858e-01 3.1709222942575072e-01 4.0395134861979026e-01  4.9701647344424821e-01 3.1583316951888912e-01 4.0136568221238583e-01  4.9578932263051023e-01 3.1268129359212443e-01 3.9679452609935567e-01  4.9520251962696088e-01 3.1084014822107625e-01 3.9479705366185530e-01  4.9462842706495530e-01 3.0880290436819674e-01 3.9297744801443452e-01  4.9407767819334253e-01 3.0668060826953508e-01 3.9132298430361911e-01  4.9354788146627759e-01 3.0446749895175534e-01 3.8982583871865745e-01  4.9303913660050180e-01 3.0218339368095831e-01 3.8847508525547259e-01  4.9255121612281028e-01 2.9983990689969642e-01 3.8726306713197073e-01  4.9208542794834925e-01 2.9746860951305620e-01 3.8617814326928523e-01  4.9164068495161517e-01 2.9507365557581494e-01 3.8521285511727599e-01  4.9121685775042473e-01 2.9266875104864504e-01 3.8435885689980126e-01  4.9081363499647829e-01 2.9026289917901255e-01 3.8360988247951167e-01  4.9043362366786580e-01 2.8790497408437360e-01 3.8295089635107293e-01  4.9006899930632497e-01 2.8552011192257359e-01 3.8238587536835134e-01  4.8972344309937493e-01 2.8316583495025072e-01 3.8190060344718441e-01  4.8939939415511508e-01 2.8087444104761167e-01 3.8148931524021645e-01  4.8908630628015026e-01 2.7854449573569562e-01 3.8115648071596742e-01  4.8879152394164571e-01 2.7627010374748062e-01 3.8088583385776958e-01  4.8851897123583526e-01 2.7410596398132553e-01 3.8066640297049364e-01  4.8825904700202194e-01 2.7194911071316136e-01 3.8050863535508012e-01  4.8801404949029531e-01 2.6984488576992427e-01 3.8039772714038522e-01  4.8778284720819426e-01 2.6778198675844650e-01 3.8033505746498264e-01  4.8756531616329929e-01 2.6576760791590331e-01 3.8031588836357311e-01  4.8736006385737279e-01 2.6379591239249300e-01 3.8033632388000438e-01  4.8716637074226321e-01 2.6186197241956344e-01 3.8039566988792328e-01  4.8698668070421330e-01 2.6001155378208918e-01 3.8048069931468032e-01  4.8681715430121025e-01 2.5819423051408630e-01 3.8060024909356127e-01  4.8665701283953017e-01 2.5641242892383614e-01 3.8074895414083382e-01  4.8650957195153655e-01 2.5471753201958880e-01 3.8091500572325404e-01  4.8636973053106997e-01 2.5304087684204074e-01 3.8111090632392058e-01  4.8623907792513965e-01 2.5141590234867844e-01 3.8132586400526391e-01  4.8611761228702821e-01 2.4984864056860509e-01 3.8155669209925974e-01  4.8600420966656815e-01 2.4832665374651230e-01 3.8180453030892808e-01  4.8589860801515883e-01 2.4685284185317932e-01 3.8206642501699822e-01  4.8579991219529434e-01 2.4541645181139055e-01 3.8234382815833423e-01  4.8570723661131010e-01 2.4400700362568756e-01 3.8263798415948536e-01  4.8562294095709957e-01 2.4268001947531617e-01 3.8292996494849618e-01  4.8554511453312821e-01 2.4140108327548820e-01 3.8322928073768847e-01  4.8547090643395141e-01 2.4011619132886619e-01 3.8355139257711313e-01  4.8540347382475740e-01 2.3890125413798330e-01 3.8387006335263080e-01  4.8534202116043601e-01 2.3774479709182356e-01 3.8418765168932806e-01  4.8528480605781510e-01 2.3661305069971161e-01 3.8451401670922691e-01  4.8523240330098483e-01 2.3552708985398868e-01 3.8484029145244636e-01  4.8518387330259105e-01 2.3446377159180307e-01 3.8517466820738350e-01  4.8514036488419904e-01 2.3346995810967111e-01 3.8549663058426464e-01  4.8510009246278579e-01 2.3249144374274605e-01 3.8582752537624060e-01  4.8506372236839201e-01 2.3156107053169261e-01 3.8615222841014629e-01  4.8503050492387917e-01 2.3065980450176216e-01 3.8647748415270511e-01  4.8500012273629040e-01 2.2978230510663078e-01 3.8680467950277364e-01  4.8497344337963350e-01 2.2896584159909500e-01 3.8711749804364382e-01  4.8494962710645390e-01 2.2818905340058945e-01 3.8742341051723067e-01  4.8492777856221048e-01 2.2741926551052605e-01 3.8773615244054982e-01  4.8490872165409027e-01 2.2669943322982616e-01 3.8803587951771590e-01  4.8489210430061197e-01 2.2602240393047873e-01 3.8832479404634190e-01  4.8487739374654887e-01 2.2536941754314754e-01 3.8861055609257661e-01  4.8486450669071091e-01 2.2474399216665206e-01 3.8889081825128408e-01  4.8485362497851209e-01 2.2416347264443942e-01 3.8915672426101117e-01  4.8521868697852810e-01 2.3533064602171996e-01 3.8487329735962861e-01  5.0607027818532058e-01 3.0280291063359832e-01 4.5627513655260216e-01  4.8499463673449722e-01 2.2113121846583705e-01 3.9169524612887208e-01  4.9679729103807552e-01 3.1591831252125246e-01 4.0013804862922980e-01  4.8485260604802277e-01 2.2421501457465076e-01 3.8912049567191365e-01  5.1778045691959440e-01 2.6666494600490592e-01 5.3385423713819768e-01  4.8540539396032717e-01 2.2946733926413981e-01 3.8935202692593446e-01  4.8694437643132393e-01 2.4994185373768776e-01 3.8628177235096411e-01  5.2933940140034519e-01 2.4991357857486327e-01 5.9217844967621702e-01  5.0501698226520664e-01 3.1589313530823609e-01 4.4273481095613382e-01  4.8586794448089299e-01 2.4649496909729388e-01 3.8209942604255187e-01  5.1394739251911326e-01 2.5888074200022526e-01 5.2085379241277641e-01  5.0974642764891953e-01 3.0201707194957245e-01 4.7482530089603092e-01  4.8660243568218126e-01 2.5590363336445138e-01 3.8073820320820162e-01  4.9830670233858931e-01 3.1215398134715683e-01 4.1054648693971207e-01  4.8491027117023694e-01 2.1949026229029164e-01 3.9212365499920665e-01  5.2081362392493846e-01 2.4504812502859585e-01 5.5947202074519375e-01  5.2703145426614273e-01 2.4441688473508796e-01 5.8584462226990808e-01  4.8485104147345393e-01 2.1903090826066893e-01 3.9203435431583600e-01  4.8791632209431357e-01 2.6911832348892523e-01 3.8028152729609571e-01  4.9347517709027389e-01 2.9517160120509944e-01 3.9527055187158178e-01  4.8994350186174651e-01 2.8487533756223177e-01 3.8207862524705360e-01  4.8482979303640467e-01 2.1936030507225535e-01 3.9172540097558467e-01  5.3024694461386579e-01 2.4729008223369867e-01 5.9711895973894435e-01  4.9010446331026919e-01 2.7621327633192289e-01 3.8834060524434738e-01  4.9194369112474046e-01 2.9708547883414693e-01 3.8563018217949385e-01  4.8481738847959988e-01 2.2048903675438439e-01 3.9101903670267485e-01  4.8499428824199720e-01 2.2972443668043185e-01 3.8680267280730468e-01  5.0208179683712584e-01 3.1837651278092444e-01 4.2625114339262526e-01  5.2348359354431928e-01 2.5382326843152264e-01 5.6608155644052394e-01  4.8583560849758067e-01 2.3635796892694783e-01 3.8787090654015899e-01  4.8512245041881064e-01 2.2391205269643658e-01 3.9087103330033879e-01  5.3103652885504271e-01 2.4903492735200106e-01 5.9927773774475279e-01  4.8851488983217539e-01 2.6444618822589389e-01 3.8654542326371688e-01  4.9388812031736479e-01 3.0628818014312459e-01 3.9053390341556687e-01  4.8482173248122790e-01 2.2181468020394179e-01 3.9029795733297917e-01  5.1315515844716364e-01 2.8583937179158631e-01 5.0109847717183520e-01  5.0921153314389822e-01 2.8248025865730941e-01 4.8429653990730293e-01  4.8490557707014659e-01 2.2668374844358732e-01 3.8802536219056472e-01  4.8545357070712619e-01 2.3991723440699836e-01 3.8356588996766461e-01  4.9934732450441910e-01 3.2000501559195554e-01 4.1102516619481194e-01  5.2677583855014343e-01 2.5079989661521029e-01 5.8141109184030204e-01  4.8627487511767570e-01 2.4225742101740658e-01 3.8696503615216921e-01  4.8488117887672644e-01 2.1924888680017274e-01 3.9208829306414317e-01  4.8559268650020754e-01 2.3269818773623729e-01 3.8858128783417317e-01  5.3056560549186182e-01 2.4953319379323685e-01 5.9718890701073268e-01  5.2064676646272146e-01 2.5872947282563469e-01 5.5113343669923109e-01  4.8762935919749772e-01 2.5679672348206950e-01 3.8611255302928238e-01  5.0213401731181095e-01 3.1742504883409045e-01 4.2712010292861302e-01  4.8509095306122130e-01 2.3237239691393061e-01 3.8584165073405435e-01  4.8505295273518079e-01 2.2249994494328731e-01 3.9126390378299031e-01  4.8710026351518265e-01 2.6133743567979068e-01 3.8033117742946404e-01  5.2366225857519155e-01 2.4378270407252001e-01 5.7229684295354344e-01  4.8867470144269687e-01 2.7550891858003651e-01 3.8068870028349833e-01  5.0405937763620323e-01 3.1282380137159060e-01 4.3986110235097114e-01  4.8522558832526730e-01 2.2607426486398505e-01 3.9024423414834369e-01  4.8620027554