<?xml version="1.0"?>
<VTKFile type="UnstructuredGrid"  version="0.1"  >
<UnstructuredGrid>
<Piece  NumberOfPoints="4940" NumberOfCells="9650">
<Points>
<DataArray  type="Float64"  NumberOfComponents="3"  format="ascii">500 250 0  0 250 0  250 500 0  250 0 0  256.8885856082646 499.9050767557906 0  263.7719401218049 499.6203791065173 0  270.6448364229772 499.1461232471188 0  277.5020553257866 498.4826693209355 0  284.3383895508592 497.6305211460281 0  291.1486476865662 496.5903258312597 0  297.9276581259182 495.3628732847843 0  304.6702729675493 493.9490956196674 0  311.3713719748657 492.3500664368026 0  318.0258664141369 490.5670000199653 0  324.6287029687753 488.6012504015818 0  331.1748675330201 486.4543103455647 0  337.6593890460416 484.1278102064655 0  344.0773432429536 481.6235166997244 0  350.4238564271474 478.9433315480048 0  356.694109139292 476.0892900492477 0  362.88333985546 473.0635595140469 0  368.9868485575419 469.8684376402048 0  375.0000003153078 466.5063507640667 0  380.9182288257928 462.9798520074548 0  386.7370398729688 459.2916193419558 0  392.4520147244077 455.444453565817 0  398.0588135356345 451.4412761437442 0  403.5531785622926 447.285127045646 0  408.9309374414144 442.9791624087773 0  414.1880064015299 438.5266521049243 0  419.3203932989752 433.9309773069245 0  424.324200661095 429.1956279150535 0  429.1956286596235 424.3241998957182 0  433.9309780058756 419.3203925397119 0  438.5266527445345 414.1880056671062 0  442.9791630130591 408.9309367076756 0  447.2851276060475 403.5531778422888 0  451.4412766621026 398.0588128303826 0  455.4444540361634 392.4520140460735 0  459.2916197786263 386.7370392045948 0  462.9798524073514 380.9182281752347 0  466.5063511234856 374.9999996927758 0  469.8684379657123 368.9868479560565 0  473.0635598144817 362.8833392617846 0  476.0892903190255 356.6941085676214 0  478.9433317963513 350.4238558609745 0  481.6235169154735 344.0773427117675 0  484.12781039012 337.6593885555221 0  486.4543105028062 331.1748670749914 0  488.601250531677 324.6287025528375 0  490.5670001317469 318.0258660188321 0  492.3500665291326 311.3713716102628 0  493.949095695951 304.6702726271575 0  495.3628733416623 297.9276578347343 0  496.5903258712341 291.1486474470129 0  497.6305211749058 284.3383893426084 0  498.4826693388848 277.502055163614 0  499.1461232580606 270.6448362909296 0  499.6203791109319 263.7719400417897 0  499.9050767571306 256.8885855596534 0  499.9050767559877 243.1114143988867 0  499.6203791069493 236.2280598860241 0  499.1461232485393 229.3551635941651 0  498.4826693235677 222.4979446979962 0  497.6305211491849 215.6616104719064 0  496.5903258357701 208.8513523404629 0  495.3628732906988 202.0723419043604 0  493.9490956264813 195.3297270628552 0  492.3500664487791 188.6286280724281 0  490.5670000344809 181.9741336371959 0  488.6012504175981 175.3712970824318 0  486.4543103623226 168.8251325157939 0  484.1278102222298 162.3406109960628 0  481.6235167152198 155.9226567951971 0  478.9433315621651 149.5761436051346 0  476.0892900516498 143.3058908657982 0  473.063559513628 137.1166601437124 0  469.8684376406648 131.0131514433083 0  466.5063507675389 124.9999996907064 0  462.9798520124137 119.0817711822745 0  459.2916193464549 113.2629601339176 0  455.4444535642773 107.5479852733717 0  451.4412761528674 101.9411864767781 0  447.2851270583545 96.44682145403524 0  442.9791624165781 91.06906256805769 0  438.5266521117469 85.81199360630404 0  433.9309773156125 80.67960671046254 0  429.1956279150353 75.67579933888632 0  424.3241998888952 70.80437133373906 0  419.3203925223282 66.06902197812161 0  414.1880056411937 61.47334723289828 0  408.9309366751728 57.0208369601728 0  403.5531778009394 52.71487236176898 0  398.058812796452 48.55872331295853 0  392.4520140187753 44.55554594490843 0  386.7370391799677 40.70838020528396 0  380.9182281475119 37.02014757560744 0  374.9999996718656 33.49364886444181 0  368.9868479340393 30.13156202237255 0  362.8833392380029 26.93644017348339 0  356.6941085456942 23.91070967062674 0  350.4238558420009 21.0566681953261 0  344.0773426899492 18.37648307566465 0  337.6593885328982 15.87218960140942 0  331.1748670549786 13.54568949032341 0  324.6287025315056 11.39874946165088 0  318.0258660010876 9.432999863235466 0  311.3713716017894 7.649933468721599 0  304.6702726190621 6.050904302234756 0  297.9276578269805 4.637126656823085 0  291.148647441857 3.409674127905504 0  284.3383893425031 2.369478825079682 0  277.502055159398 1.517330660648639 0  270.6448362875833 0.853876741662134 0  263.7719400401456 0.3796208889774277 0  256.8885855592052 0.09492324285704967 0  243.1114143979462 0.09492324403817065 0  236.2280598850882 0.3796208931023841 0  229.3551635938215 0.8538767514891958 0  222.4979446968584 1.517330676558146 0  215.6616104703111 2.369478851036291 0  208.8513523382973 3.409674164591252 0  202.0723419066374 4.637126708856528 0  195.3297270659513 6.050904372824903 0  188.628628074828 7.649933550613184 0  181.9741336377093 9.432999965373938 0  175.3712970793675 11.39874958336037 0  168.8251325057572 13.54568964112298 0  162.340610986655 15.87218978129263 0  155.9226567874317 18.37648328793418 0  149.576143602509 21.05666843898663 0  143.3058908718157 23.91070994551046 0  137.1166601505524 26.93644048291054 0  131.0131514451933 30.13156235831508 0  124.9999996848412 33.49364923584736 0  119.0817711715717 37.0201479941652 0  113.2629601211624 40.70838066187849 0  107.5479852622251 44.55554644345162 0  101.9411864693332 48.55872385260452 0  96.44682143286516 52.71487295812284 0  91.06906254351222 57.02083760363669 0  85.81199358272519 61.4733479087879 0  80.67960667988106 66.06902271253972 0  75.67579930062769 70.80437212218331 0  70.80437129287643 75.67580015310926 0  66.06902193673014 80.67960752263491 0  61.47334718684866 85.81199441168215 0  57.02083692524275 91.0690633672404 0  52.71487232786438 96.44682224262129 0  48.55872328070024 101.941187247437 0  44.55554591578033 107.5479860232332 0  40.7083801742321 113.2629608675606 0  37.02014754791168 119.0817718975441 0  33.49364883372994 125.000000381329 0  30.13156199866361 131.0131521097709 0  26.9364401549829 137.1166607985551 0  23.91070965524918 143.3058914868915 0  21.05666818346614 149.576144185037 0  18.37648306853811 155.9226573275967 0  15.8721895918909 162.3406114925245 0  13.54568948170046 168.8251329701392 0  11.39874945301878 175.3712974960928 0  9.432999857087736 181.9741340206533 0  7.649933466342702 188.6286284076045 0  6.050904301250966 195.3297273853278 0  4.637126656808988 202.0723421730917 0  3.409674127767772 208.8513525589684 0  2.369478824521138 215.6616106615248 0  1.517330660909465 222.4979448382452 0  0.8538767414496533 229.355163714981 0  0.3796208887135322 236.2280599646376 0  0.09492324266324204 243.1114144478261 0  0.0949232442452228 256.8885856095658 0  0.3796208935834784 263.7719401236316 0  0.8538767530323526 270.6448364248016 0  1.517330679476544 277.5020553295092 0  2.369478854618649 284.3383895555228 0  3.409674170191892 291.1486476952655 0  4.6371267162381 297.9276581311522 0  6.050904381420935 304.6702729724059 0  7.649933562385399 311.3713719716595 0  9.43299997979841 318.0258664133013 0  11.3987495994252 324.6287029719946 0  13.54568965885832 331.174867545904 0  15.87218979367188 337.6593890464085 0  18.37648329843151 344.0773432384132 0  21.05666844777872 350.423856417535 0  23.91070995156048 356.6941091410045 0  26.93644048988043 362.8833398632205 0  30.13156235982007 368.9868485575877 0  33.49364924138357 375.0000003247478 0  37.0201480006036 380.9182288389023 0  40.70838066758398 386.7370398875706 0  44.55554644477201 392.4520147396792 0  48.55872386086904 398.0588135419111 0  52.71487295981296 403.5531785693063 0  57.02083760525949 408.9309374584583 0  61.47334790862246 414.1880064170849 0  66.06902271205095 419.320393319588 0  70.80437211216579 424.3242006890749 0  75.67580013809859 429.195628692521 0  80.6796075127923 433.930978054209 0  85.81199439754931 438.5266528008431 0  91.06906334717917 442.9791630582355 0  96.44682221438322 447.2851276501571 0  101.9411872243843 451.441276702356 0  107.5479859945825 455.4444540643537 0  113.2629608446994 459.2916198108319 0  119.0817718768376 462.9798524393601 0  125.0000003647644 466.5063511567065 0  131.0131521012763 469.8684379967393 0  137.1166607840049 473.0635598376539 0  143.3058914748804 476.0892903390826 0  149.5761441732679 478.9433318113714 0  155.9226573130112 481.6235169255377 0  162.3406114779862 484.1278104026658 0  168.8251329570439 486.4543105138039 0  175.3712974805475 488.601250542119 0  181.9741340135204 490.5670001408953 0  188.6286284005059 492.3500665318597 0  195.3297273788229 493.9490956972913 0  202.0723421640089 495.3628733414168 0  208.8513525529672 496.5903258712308 0  215.6616106544547 497.6305211744985 0  222.4979448327038 498.4826693384772 0  229.3551637102845 499.1461232581612 0  236.2280599621369 499.6203791111485 0  243.1114144470173 499.9050767573145 0  155.2373389820306 474.8197567317462 0  25.36256300907667 153.9152755065208 0  432.3709625126712 412.6214396304305 0  6.013151705810699 246.637913163471 0  246.6379131630491 493.986848294322 0  338.6995838441862 22.68244767887072 0  477.3175523131281 338.6995838660569 0  493.9868482700757 246.6379131399102 0  246.6201155078769 6.218451882810491 0  417.6179310263282 72.7156044707053 0  102.2232990934413 445.0100869616822 0  63.66330858966404 92.20354579482142 0  391.3105220491464 50.73522820883105 0  72.79295043967942 418.0702734974704 0  448.290574428537 108.25674339002 0  402.4604651193511 440.7462829841712 0  97.55317348421397 59.11376320116034 0  136.7376477664901 33.58246472647134 0  363.3288394375288 465.6947312928271 0  44.0678766556007 381.0860953771871 0  469.6905266180034 142.3890690100806 0  22.68244791668644 338.6995843487432 0  338.699584349159 477.317552078365 0  173.389488083762 18.6681884918202 0  483.4809734778481 179.7121987795732 0  13.50237455842738 306.4709525540879 0  305.9825168523021 487.24416992
[...]
<PointData  Vectors="f_12"> 
<DataArray  type="Float64"  Name="f_12"  NumberOfComponents="3" format="ascii">5.4243620222323141e-01 3.1300325500289755e-01 6.2945746724944129e-01  5.5506307376542141e-01 1.8113124893911720e-01 7.7789426641307724e-01  5.0954476959773398e-01 6.0187140637753977e-01 1.8714625200938159e-01  4.6503112756998966e-01 1.1046219678500012e-01 2.8025220312001620e-01  5.0904986014403220e-01 5.9954223123419004e-01 1.8665886566368967e-01  5.0860293706354320e-01 5.9742162750862149e-01 1.8622138983876349e-01  5.0817628851691210e-01 5.9538314808390180e-01 1.8580577129120063e-01  5.0779077224513769e-01 5.9352919218761735e-01 1.8543207533169354e-01  5.0743656753227118e-01 5.9181534043642714e-01 1.8509053193038774e-01  5.0711447412915311e-01 5.9024838874417451e-01 1.8478099832544759e-01  5.0682381346552829e-01 5.8882751230982922e-01 1.8450278780960636e-01  5.0656217306879081e-01 5.8754285042663967e-01 1.8425319802423767e-01  5.0633143241844458e-01 5.8640537724268416e-01 1.8403368024347963e-01  5.0613294786102747e-01 5.8542362778151891e-01 1.8384550403578945e-01  5.0598240763950819e-01 5.8467655271586672e-01 1.8370323413200559e-01  5.0582705658204508e-01 5.8390471162214419e-01 1.8355615855531401e-01  5.0574846687887909e-01 5.8351277333634477e-01 1.8348226081375077e-01  5.0567167992809103e-01 5.8313014031495536e-01 1.8340973082572606e-01  5.0563188943207482e-01 5.8293166341344116e-01 1.8337221969861220e-01  5.0561949375423054e-01 5.8287016317203610e-01 1.8336036963530550e-01  5.0563166767900469e-01 5.8293154921071266e-01 1.8337118960763579e-01  5.0569082874879745e-01 5.8322703108305396e-01 1.8342685908233167e-01  5.0578285504642806e-01 5.8368614715924250e-01 1.8351369393647823e-01  5.0588636102668005e-01 5.8420216049017071e-01 1.8361077879622301e-01  5.0602330070502977e-01 5.8488351442568043e-01 1.8373969137750110e-01  5.0620285736608495e-01 5.8577381846420262e-01 1.8390950601539166e-01  5.0642836593400464e-01 5.8688815851828757e-01 1.8412350164049907e-01  5.0666440215016584e-01 5.8805088909343339e-01 1.8434767195076415e-01  5.0693176009756546e-01 5.8936241209595253e-01 1.8460240080966062e-01  5.0725448027022291e-01 5.9093750118039545e-01 1.8491147990339582e-01  5.0759548106864127e-01 5.9259343653657859e-01 1.8523924867193692e-01  5.0797757824100209e-01 5.9443737031163124e-01 1.8560827991296303e-01  5.0839780739300677e-01 5.9645267969493321e-01 1.8601635298454228e-01  5.0884456299290037e-01 5.9858036365008604e-01 1.8645204493371090e-01  5.0935162065475137e-01 6.0097537408738622e-01 1.8694979585910515e-01  5.0989332035328394e-01 6.0351284579365538e-01 1.8748511424105846e-01  5.1045786339782706e-01 6.0613392877706851e-01 1.8804567471445938e-01  5.1108447865040396e-01 6.0901349867369814e-01 1.8867283426192447e-01  5.1177702965241356e-01 6.1216055725265239e-01 1.8937230121625390e-01  5.1250156054066365e-01 6.1541487223756475e-01 1.9010936325597830e-01  5.1325644036044482e-01 6.1876390922632907e-01 1.9088306643152084e-01  5.1408150839486566e-01 6.2237415978617849e-01 1.9173684787550929e-01  5.1497905536591027e-01 6.2624466804485723e-01 1.9267418170785955e-01  5.1592346035511227e-01 6.3025310954776159e-01 1.9367036693847406e-01  5.1693983457776638e-01 6.3449277984881947e-01 1.9475408834408939e-01  5.1802262952680822e-01 6.3892332437610655e-01 1.9592176318567209e-01  5.1916954524267356e-01 6.4353301694945952e-01 1.9717182315491941e-01  5.2039753929465826e-01 6.4837018582568839e-01 1.9851557994984548e-01  5.2174061782578929e-01 6.5347228035502836e-01 2.0001643165232205e-01  5.2307612688880156e-01 6.5838506965750676e-01 2.0165919592758313e-01  5.2430555993964734e-01 6.6300751025341742e-01 2.0316826992752857e-01  5.2525481463909396e-01 6.6721581442807931e-01 2.0270647745754763e-01  5.3090322212066943e-01 6.9296292941579107e-01 2.0660347098904411e-01  5.5670881576558662e-01 7.4846544294595707e-01 2.5049540762166378e-01  6.0543950551162273e-01 7.2108924508351979e-01 4.0323361049315931e-01  6.1460063120464226e-01 4.6274633822891992e-01 7.4717115586256322e-01  5.3625478921137937e-01 1.6518953112818524e-01 7.0903754047008916e-01  4.7999233984997963e-01 1.6545357323462742e-01 3.5705752973098703e-01  4.8814256553142621e-01 3.7954267678921327e-01 2.5818068063301230e-01  5.3844250098264834e-01 5.6506187101447791e-01 3.7317085380255666e-01  5.6378959895514291e-01 2.1532419100656192e-01 7.9472341253474788e-01  6.2165317853578184e-01 3.9404044432863095e-01 8.1737057809366997e-01  6.4432836096146384e-01 5.9669009829160546e-01 6.2869409611046179e-01  6.4525872216798685e-01 6.7794655686695215e-01 5.1926592823633977e-01  6.4388818627792321e-01 5.8763458031169824e-01 6.3896728490329147e-01  6.3191828817817808e-01 4.3353109046753130e-01 7.9000801923416109e-01  6.0293635557133818e-01 2.7989878633165050e-01 8.5965408426215772e-01  5.5965956255939908e-01 1.5881163403603565e-01 7.9314451726855195e-01  5.1993492991724066e-01 1.1283903423352187e-01 6.3158471261861071e-01  5.3064063833770903e-01 2.1599150227796710e-01 6.4847424089234340e-01  5.4375341056453508e-01 4.7779361861133784e-01 4.8266289926307310e-01  4.8716012165792250e-01 4.1111768660647940e-01 2.2148103215980453e-01  4.7527451599580178e-01 3.6794978882713331e-01 1.8696722234370008e-01  5.4541240795229862e-01 5.3981772858476007e-01 4.2947207858657832e-01  5.9800480457346539e-01 4.3627464007181355e-01 7.2786732066135384e-01  6.2373350504161074e-01 4.1483346776156860e-01 7.9522977366177838e-01  6.4125475088043449e-01 4.7893974517962329e-01 7.5335920277608970e-01  6.4932924955830529e-01 5.4282010553733751e-01 6.9234135238662531e-01  6.5124344123637534e-01 5.6481711117561739e-01 6.6838135065834514e-01  6.4821060354835236e-01 5.2981233269302630e-01 7.0632143813581671e-01  6.4374313279170758e-01 4.8283901146934433e-01 7.5176845409432713e-01  6.4123089415021084e-01 4.5917042968837907e-01 7.7211638445823205e-01  6.4171763050201391e-01 4.6303109979227219e-01 7.6889392372996201e-01  6.4474563130193252e-01 4.8975708904296072e-01 7.4588465204333465e-01  6.4913005580836702e-01 5.2464862152534997e-01 7.1190788890361179e-01  6.4648443297220026e-01 4.9799048598552992e-01 7.3628019540242229e-01  6.1382088352816588e-01 3.2323971538078466e-01 8.5477517222339239e-01  5.4721901686730845e-01 1.3646392313551756e-01 7.5704804778591372e-01  4.9171194540811652e-01 8.6996666188031910e-02 4.6765430578493222e-01  4.6523453642598511e-01 1.1859588278193663e-01 2.7801378572335056e-01  4.6436462799659872e-01 2.3901402194568405e-01 2.0095293078335916e-01  4.9221169033756623e-01 4.8022020657678194e-01 2.0301181807868077e-01  5.4283486289463390e-01 6.9569825083564962e-01 2.6025499951506764e-01  5.9538326098516725e-01 7.3854733710826981e-01 3.6605445361962829e-01  6.3040511179212533e-01 6.7122343761709968e-01 5.1388653716183774e-01  6.4066585588116443e-01 5.5063347280545594e-01 6.7733609911799086e-01  6.2670776184504806e-01 3.9792115902579428e-01 8.1400429699468635e-01  5.9271809174795442e-01 2.4267987807435606e-01 8.5743436681735918e-01  5.5164930424483816e-01 1.3666121916789759e-01 7.7303968068613416e-01  5.1857774601836903e-01 9.3618077597895574e-02 6.2511045890746542e-01  4.9672320708756607e-01 8.1923405526860157e-02 5.0055292331256895e-01  4.8758099578146075e-01 7.9338488549141356e-02 4.4486656336175329e-01  4.8555937749387251e-01 7.9371381961507254e-02 4.3187895490531858e-01  4.9144380217514283e-01 7.9416169424792710e-02 4.6915159005248663e-01  5.0777606739724312e-01 8.6456344454089881e-02 5.6589311276275578e-01  5.3850588696982882e-01 1.1769693460954610e-01 7.1929017307674492e-01  5.8128204180154719e-01 2.0835357461877635e-01 8.4699374524316284e-01  6.2064460792460030e-01 3.6888991341432459e-01 8.2959327579805520e-01  6.3814460923550831e-01 5.4220508904030595e-01 6.8410446515825996e-01  6.2495652712090655e-01 6.7733867990781871e-01 4.9890933654999103e-01  5.8191163487906949e-01 7.3696292311418643e-01 3.3750710874993040e-01  5.2280438568221421e-01 6.3523426749996537e-01 2.3346573889748887e-01  4.7786789029601145e-01 3.7911227863428509e-01 1.9109524480643009e-01  4.6267329763438247e-01 1.7871698951250178e-01 2.2624632112041693e-01  4.7203594569827878e-01 9.2478279065627889e-02 3.3594828093374851e-01  4.7772110728405387e-01 7.7738259631712325e-02 3.8161881021142080e-01  4.5925564074656333e-01 1.8049486779364354e-01 2.0273556003467111e-01  4.6140893052922727e-01 2.5646382599450679e-01 1.7070619719083485e-01  4.6926750945263807e-01 3.3202124488781598e-01 1.6940441699045325e-01  4.6769346935071543e-01 3.1534538069304452e-01 1.7003916323752100e-01  4.6070416580356982e-01 2.2213705573224690e-01 1.8773702174483631e-01  4.6524658582768147e-01 1.3017960492620811e-01 2.7101006762555335e-01  4.8887795680034074e-01 8.4322403189891537e-02 4.4775984632696691e-01  5.0060945279531133e-01 7.9867334002232004e-02 5.2325367559764979e-01  4.7695061006255302e-01 9.6182257478588690e-02 3.6490923573693207e-01  4.6713696710986385e-01 1.4362899935650267e-01 2.7901511118207512e-01  5.0132704301270548e-01 1.8491004006006845e-01 4.9186007180165836e-01  5.7403514107836651e-01 3.1146464524422623e-01 7.7383790989759393e-01  5.8836436187670282e-01 5.1821168327583145e-01 6.1469812015198044e-01  5.2156918427832655e-01 4.4047359444699025e-01 4.1189372801708990e-01  4.8077663964449802e-01 1.5465593839591366e-01 3.6375422277899805e-01  5.0469093356128447e-01 8.4465357802501848e-02 5.4926842672492049e-01  4.9296019052443185e-01 8.5289656884064896e-02 4.7400580927303987e-01  4.6542885593348221e-01 1.1791684353973562e-01 2.7946275961247014e-01  4.6092999734904261e-01 2.0758876055650030e-01 1.9727471307826963e-01  4.7862489054347490e-01 3.9724666667566977e-01 1.8399550006793478e-01  5.1949763073094168e-01 6.2723225817855210e-01 2.2273620576336783e-01  5.7068606495029972e-01 7.3895257758594113e-01 3.0506052758593977e-01  6.1339333055812850e-01 7.2312690978722216e-01 4.2026734925777071e-01  6.3741571239017902e-01 6.4631893550634933e-01 5.5445815069160032e-01  6.4240106101465544e-01 5.4294869612189189e-01 6.8506069074077725e-01  6.3351294545988845e-01 4.3410620222970525e-01 7.8723084777609142e-01  6.1794415445414441e-01 3.3899733168241603e-01 8.4496761283464550e-01  6.0327683087546191e-01 2.7410308146948431e-01 8.6236683790004087e-01  5.9458428855218293e-01 2.4291916991777260e-01 8.6038660489625940e-01  5.9442513258384633e-01 2.4290537014232563e-01 8.5914763606248679e-01  6.0224762403818888e-01 2.7174412794037517e-01 8.6049955453845017e-01  6.1664715446799923e-01 3.3289379273790204e-01 8.4641296729229343e-01  6.3188623568648028e-01 4.1841062706496079e-01 8.0022270833516429e-01  6.4384425438032411e-01 5.2427661756636068e-01 7.1146492428362540e-01  6.4263512295361103e-01 6.2268090357884942e-01 5.8912303675148481e-01  6.2712411225128351e-01 7.0204820815122204e-01 4.6880214977907664e-01  5.9478453672620657e-01 7.4607829283566307e-01 3.5542090541071564e-01  5.4921558207602073e-01 7.1185304747754063e-01 2.6585662454470954e-01  5.0172642085604446e-01 5.4309148736518931e-01 2.0520123869692850e-01  4.6909210416628433e-01 3.0347189696347204e-01 1.8829438941975504e-01  4.6093428965568745e-01 1.4822003634536079e-01 2.3301290515103720e-01  4.7364773726883214e-01 8.8289866727586278e-02 3.4816602162599408e-01  4.8955394304633193e-01 7.6839900148048118e-02 4.5388751550011375e-01  4.8802568345002201e-01 8.0361356470717696e-02 4.4007031958754450e-01  4.8015628266047611e-01 8.2764917073978192e-02 3.8876280462448287e-01  4.7656548408406790e-01 8.3896412764708134e-02 3.6545775670152153e-01  4.7445001894499855e-01 8.5442643566281604e-02 3.5109510453031462e-01  4.7181050917505957e-01 8.8175796462192979e-02 3.3276167732963785e-01  4.6816052370477346e-01 9.3763179007820649e-02 3.0621162456420165e-01  4.6521063224504561e-01 1.0022234327205322e-01 2.8368191904887302e-01  4.6413177363610875e-01 1.0353857337224404e-01 2.7516663341701514e-01  4.6818886570332585e-01 9.7570312373846779e-02 3.0570196096253455e-01  4.9013873121649026e-01 9.0746118963591790e-02 4.5378514007800075e-01  5.4361985288762071e-01 1.2899200066198460e-01 7.3440532232684341e-01  5.7749664207106610e-01 1.9088493278683002e-01 8.3234727196597469e-01  5.6025663080188748e-01 1.6168133470359589e-01 7.9023143996284673e-01  5.8340090003971434e-01 4.0129472704874924e-01 7.2235650768062465e-01  5.4742612375883781e-01 5.7603561929310487e-01 3.9861784349846202e-01  4.7363264540582345e-01 3.4403064631465502e-01 1.9509916482650017e-01  4.7035858615943715e-01 3.2359327843271407e-01 1.8827763986414595e-01  5.4396670939115144e-01 5.9064214358451306e-01 3.7024366142698339e-01  5.9391635390368114e-01 4.9645365781205253e-01 6.5839287522952039e-01  5.3670839323482544e-01 2.1563617873592486e-01 6.8446795680366479e-01  4.8114689336978828e-01 1.2453156878640390e-01 3.8710955323785523e-01  4.8192167241973949e-01 9.2146962632845844e-02 4.0203803289839701e-01  5.1530776891949448e-01 1.0026187656183122e-01 6.0391917315439170e-01  5.7537867628719042e-01 2.0680166988926324e-01 8.3990560043389551e-01  6.3430130136880358e-01 4.5874881443962107e-01 7.7045701342125850e-01  6.4977632176845623e-01 5.6255224755118260e-01 6.6726531168844261e-01  6.2302312307372010e-01 4.0379323492724173e-01 8.0574881208407934e-01  5.6962509089368007e-01 2.4350430484269761e-01 8.0217283108230863e-01  5.5635805772012203e-01 3.9303355434754045e-01 6.2437474548157457e-01  5.2204614275537953e-01 5.1952004859572309e-01 3.3013569363438017e-01  4.7682988471715299e-01 2.7713052079762263e-01 2.6289838497172757e-01  4.8670548675321068e-01 1.3370406964130807e-01 4.2141053178714477e-01  5.5810027487266534e-01 1.9820181867329217e-01 7.8945612516445307e-01  6.2565273177317149e-01 5.2330424902588102e-01 6.9715155556782427e-01  6.1109039025557677e-01 7.3504702922118303e-01 3.9670628270270830e-01  5.7301908142947233e-01 7.7073033186785456e-01 2.7248370402569289e-01  5.5272525330847566e-01 7.4578683045662475e-01 2.3603140846527065e-01  5.4758067473527983e-01 7.3003851791209018e-01 2.3177832664504758e-01  5.4608227656132302e-01 7.2591891610906245e-01 2.3104203520663955e-01  5.4428958354674506e-01 7.2184761862041036e-01 2.2841522922628768e-01  5.4240801909463254e-01 7.1747220272782031e-01 2.2568734915241093e-01  5.4050741774774735e-01 7.1275094444394338e-01 2.2312831379102116e-01  5.3868490378470535e-01 7.0798109242582408e-01 2.2071215293114155e-01  5.3693960879038016e-01 7.0322695540965519e-01 2.1843178353780665e-01  5.3525702786755103e-01 6.9846671685867001e-01 2.1626641410791367e-01  5.3363608111534411e-01 6.9371047959593468e-01 2.1421187801309091e-01  5.3207132221324138e-01 6.8895686099035069e-01 2.1225767731784326e-01  5.3055501303745334e-01 6.8419881346867772e-01 2.1038988577222736e-01  5.2911258619767576e-01 6.7953273348128007e-01 2.0863677794236121e-01  5.2772945268516602e-01 6.7492694827255240e-01 2.0697834068495646e-01  5.2637426692133515e-01 6.7028975993750506e-01 2.0537337859095353e-01  5.2508420468019645e-01 6.6575960909723320e-01 2.0386457444666986e-01  5.2385442010472172e-01 6.6133356461326898e-01 2.0244437316468392e-01  5.2266569848519362e-01 6.5695613420709198e-01 2.0108697590521526e-01  5.2152710332748209e-01 6.5267074019796079e-01 1.9980076705862879e-01  5.2042854387971715e-01 6.4844914922284647e-01 1.9857446375309937e-01  5.1938892354923671e-01 6.4437521289927324e-01 1.9742464379605115e-01  5.1838501422683358e-01 6.4036754085950354e-01 1.9632705300593978e-01  5.1742964654136614e-01 6.3648597487347225e-01 1.9529266809423368e-01  5.1651243224911503e-01 6.3269673741535870e-01 1.9430825690364112e-01  5.1562971798088231e-01 6.2899268310953027e-01 1.9336946443500827e-01  5.1480176609763162e-01 6.2546588833735983e-01 1.9249875641134515e-01  5.1401724401221860e-01 6.2207627048117675e-01 1.9168001041754201e-01  5.1325861911013160e-01 6.1875597132126425e-01 1.9089464476225126e-01  5.1254699654474001e-01 6.1560164422298680e-01 1.9016399979287446e-01  5.1187852670910317e-01 6.1260376248647430e-01 1.8948366883298062e-01  5.1124312600770938e-01 6.0972243198723275e-01 1.8884096131546430e-01  5.1064139393357588e-01 6.0696650894440030e-01 1.8823689038278402e-01  5.1008236087588110e-01 6.0438042803931247e-01 1.8767917945432813e-01  5.2111772119646904e-01 6.5110483986403489e-01 1.9934455320585784e-01  4.7504223581173105e-01 8.9015725400682838e-02 3.5559673520986124e-01  5.0929082359078104e-01 6.0068759425761087e-01 1.8689228586853421e-01  5.4743891010426804e-01 1.4585775898607667e-01 7.5185710952780949e-01  5.0997029747735190e-01 6.0385771531768173e-01 1.8756963286797271e-01  4.7528678326655116e-01 1.0553858871998223e-01 3.4989683443826913e-01  5.2003128064515525e-01 6.4691938083761003e-01 1.9812157061093894e-01  5.4337071366504908e-01 2.1921278233580829e-01 7.1325992620607503e-01  4.6301071742735428e-01 1.8882370209822819e-01 2.2196104284140883e-01  4.7144106223072951e-01 1.1109363864533527e-01 3.2191851918827996e-01  5.3304934170780571e-01 6.9194247898968775e-01 2.1347863122204902e-01  5.6979326156350674e-01 1.9116306273561048e-01 8.1806839830737998e-01  6.2514549200237968e-01 6.6118105108150305e-01 5.2292509192542369e-01  5.4339488619132625e-01 7.1980168682067092e-01 2.2714942147706127e-01  6.4056983472372675e-01 4.5423049263209270e-01 7.7613818497768516e-01  5.0694334549526343e-01 5.8941641552119250e-01 1.8461583142056115e-01  6.3238796780335671e-01 5.0540200248287137e-01 7.2194887272843367e-01  4.7305280003467787e-01 1.0889473273072016e-01 3.3271459220056171e-01  5.0582994869300513e-01 5.8391937687559892e-01 1.8355998844775739e-01  5.8121333964310884e-01 2.8373278911905059e-01 8.2144275625579488e-01  6.3049423031919194e-01 4.2315021290220289e-01 7.9531825004119661e-01  6.3896710429956904e-01 4.8435718663378241e-01 7.5260117053911524e-01  5.0585702665661736e-01 5.8405191721299021e-01 1.8358616026060279e-01  5.4701368761801150e-01 2.3433626539450755e-01 7.2385668763780031e-01  5.4665721458622984e-01 3.8925992467969678e-01 5.8615445886444983e-01  4.8210904226952361e-01 9.5819092905902611e-02 4.0358528586615033e-01  5.0663475934400382e-01 5.8789765559182894e-01 1.8432425472271519e-01  5.1536207694091274e-01 6.2785714348389388e-01 1.9308949387224530e-01  4.7107865680002925e-01 8.9296534075456249e-02 3.2746440996990023e-01  6.3225403956120119e-01 5.5712607486133126e-01 6.6182714152802713e-01  5.5553581305223021e-01 7.4030678146277862e-01 2.5076961081081717e-01  5.1292107663915665e-01 6.1727711273368291e-01 1.9054169376569619e-01  4.7502535610618679e-01 1.0516216816605632e-01 3.4740893385605426e-01  6.1878582214497302e-01 3.5193896278673342e-01 8.3920309921378267e-01  5.0442064927833785e-01 4.8900947992712568e-01 2.6636333297792353e-01  5.0776626871998432e-01 5.9340867012418363e-01 1.8541030730761784e-01  5.4549199378059643e-01 1.3956645768900228e-01 7.4199512418880353e-01  5.8826018562454485e-01 7.2030161595796371e-01 3.7333743008809667e-01  5.1235282116970393e-01 6.1473232776847853e-01 1.8996796233917759e-01  5.2592684202761775e-01 6.6873330698076006e-01 2.0485030434857668e-01  4.8016744812168916e-01 9.0029456717959963e-02 3.8863253036833162e-01  4.7270063786659511e-01 3.1747745119171839e-01 2.0167451586452509e-01  4.9742310036870846e-01 1.4650601146494080e-01 4.8424333313235474e-01  5.0634053876832708e-01 5.8645134734880311e-01 1.8404295350807129e-01  5.2375074082714401e-01 6.6097029791084128e-01 2.0208248032310727e-01  4.8649536740671429e-01 4.3270425649061556e-01 2.0092454747652796e-01  5.2989247246716564e-01 1.1756262739493581e-01 6.7736080076073779e-01  6.4560880490012407e-01 6.5798604701661789e-01 5.5116338472916215e-01  6.2301960922160238e-01 3.6523371998284232e-01 8.4031843838501130e-01  5.1804478421376410e-01 6.3898888907200901e-01 1.9595979505496183e-01  5.1100920441830333e-01 6.0866701849954752e-01 1.8860075682136043e-01  5.5463850379664137e-01 7.4643222100154039e-01 2.4239921437948139e-01  5.6209957078455708e-01 7.1068225932255102e-01 3.0972378940225720e-01  4.9465960379565332e-01 4.2843177486199630e-01 2.5778156727424306e-01  4.7964600623583842e-01 8.2781004246243656e-02 3.8558610290351608e-01  5.1566419058545265e-01 6.2915578742502443e-01 1.9339918037224454e-01  5.3799713871