<?xml version="1.0"?>
<VTKFile type="UnstructuredGrid"  version="0.1"  >
<UnstructuredGrid>
<Piece  NumberOfPoints="4940" NumberOfCells="9650">
<Points>
<DataArray  type="Float64"  NumberOfComponents="3"  format="ascii">500 250 0  0 250 0  250 500 0  250 0 0  256.8885856082646 499.9050767557906 0  263.7719401218049 499.6203791065173 0  270.6448364229772 499.1461232471188 0  277.5020553257866 498.4826693209355 0  284.3383895508592 497.6305211460281 0  291.1486476865662 496.5903258312597 0  297.9276581259182 495.3628732847843 0  304.6702729675493 493.9490956196674 0  311.3713719748657 492.3500664368026 0  318.0258664141369 490.5670000199653 0  324.6287029687753 488.6012504015818 0  331.1748675330201 486.4543103455647 0  337.6593890460416 484.1278102064655 0  344.0773432429536 481.6235166997244 0  350.4238564271474 478.9433315480048 0  356.694109139292 476.0892900492477 0  362.88333985546 473.0635595140469 0  368.9868485575419 469.8684376402048 0  375.0000003153078 466.5063507640667 0  380.9182288257928 462.9798520074548 0  386.7370398729688 459.2916193419558 0  392.4520147244077 455.444453565817 0  398.0588135356345 451.4412761437442 0  403.5531785622926 447.285127045646 0  408.9309374414144 442.9791624087773 0  414.1880064015299 438.5266521049243 0  419.3203932989752 433.9309773069245 0  424.324200661095 429.1956279150535 0  429.1956286596235 424.3241998957182 0  433.9309780058756 419.3203925397119 0  438.5266527445345 414.1880056671062 0  442.9791630130591 408.9309367076756 0  447.2851276060475 403.5531778422888 0  451.4412766621026 398.0588128303826 0  455.4444540361634 392.4520140460735 0  459.2916197786263 386.7370392045948 0  462.9798524073514 380.9182281752347 0  466.5063511234856 374.9999996927758 0  469.8684379657123 368.9868479560565 0  473.0635598144817 362.8833392617846 0  476.0892903190255 356.6941085676214 0  478.9433317963513 350.4238558609745 0  481.6235169154735 344.0773427117675 0  484.12781039012 337.6593885555221 0  486.4543105028062 331.1748670749914 0  488.601250531677 324.6287025528375 0  490.5670001317469 318.0258660188321 0  492.3500665291326 311.3713716102628 0  493.949095695951 304.6702726271575 0  495.3628733416623 297.9276578347343 0  496.5903258712341 291.1486474470129 0  497.6305211749058 284.3383893426084 0  498.4826693388848 277.502055163614 0  499.1461232580606 270.6448362909296 0  499.6203791109319 263.7719400417897 0  499.9050767571306 256.8885855596534 0  499.9050767559877 243.1114143988867 0  499.6203791069493 236.2280598860241 0  499.1461232485393 229.3551635941651 0  498.4826693235677 222.4979446979962 0  497.6305211491849 215.6616104719064 0  496.5903258357701 208.8513523404629 0  495.3628732906988 202.0723419043604 0  493.9490956264813 195.3297270628552 0  492.3500664487791 188.6286280724281 0  490.5670000344809 181.9741336371959 0  488.6012504175981 175.3712970824318 0  486.4543103623226 168.8251325157939 0  484.1278102222298 162.3406109960628 0  481.6235167152198 155.9226567951971 0  478.9433315621651 149.5761436051346 0  476.0892900516498 143.3058908657982 0  473.063559513628 137.1166601437124 0  469.8684376406648 131.0131514433083 0  466.5063507675389 124.9999996907064 0  462.9798520124137 119.0817711822745 0  459.2916193464549 113.2629601339176 0  455.4444535642773 107.5479852733717 0  451.4412761528674 101.9411864767781 0  447.2851270583545 96.44682145403524 0  442.9791624165781 91.06906256805769 0  438.5266521117469 85.81199360630404 0  433.9309773156125 80.67960671046254 0  429.1956279150353 75.67579933888632 0  424.3241998888952 70.80437133373906 0  419.3203925223282 66.06902197812161 0  414.1880056411937 61.47334723289828 0  408.9309366751728 57.0208369601728 0  403.5531778009394 52.71487236176898 0  398.058812796452 48.55872331295853 0  392.4520140187753 44.55554594490843 0  386.7370391799677 40.70838020528396 0  380.9182281475119 37.02014757560744 0  374.9999996718656 33.49364886444181 0  368.9868479340393 30.13156202237255 0  362.8833392380029 26.93644017348339 0  356.6941085456942 23.91070967062674 0  350.4238558420009 21.0566681953261 0  344.0773426899492 18.37648307566465 0  337.6593885328982 15.87218960140942 0  331.1748670549786 13.54568949032341 0  324.6287025315056 11.39874946165088 0  318.0258660010876 9.432999863235466 0  311.3713716017894 7.649933468721599 0  304.6702726190621 6.050904302234756 0  297.9276578269805 4.637126656823085 0  291.148647441857 3.409674127905504 0  284.3383893425031 2.369478825079682 0  277.502055159398 1.517330660648639 0  270.6448362875833 0.853876741662134 0  263.7719400401456 0.3796208889774277 0  256.8885855592052 0.09492324285704967 0  243.1114143979462 0.09492324403817065 0  236.2280598850882 0.3796208931023841 0  229.3551635938215 0.8538767514891958 0  222.4979446968584 1.517330676558146 0  215.6616104703111 2.369478851036291 0  208.8513523382973 3.409674164591252 0  202.0723419066374 4.637126708856528 0  195.3297270659513 6.050904372824903 0  188.628628074828 7.649933550613184 0  181.9741336377093 9.432999965373938 0  175.3712970793675 11.39874958336037 0  168.8251325057572 13.54568964112298 0  162.340610986655 15.87218978129263 0  155.9226567874317 18.37648328793418 0  149.576143602509 21.05666843898663 0  143.3058908718157 23.91070994551046 0  137.1166601505524 26.93644048291054 0  131.0131514451933 30.13156235831508 0  124.9999996848412 33.49364923584736 0  119.0817711715717 37.0201479941652 0  113.2629601211624 40.70838066187849 0  107.5479852622251 44.55554644345162 0  101.9411864693332 48.55872385260452 0  96.44682143286516 52.71487295812284 0  91.06906254351222 57.02083760363669 0  85.81199358272519 61.4733479087879 0  80.67960667988106 66.06902271253972 0  75.67579930062769 70.80437212218331 0  70.80437129287643 75.67580015310926 0  66.06902193673014 80.67960752263491 0  61.47334718684866 85.81199441168215 0  57.02083692524275 91.0690633672404 0  52.71487232786438 96.44682224262129 0  48.55872328070024 101.941187247437 0  44.55554591578033 107.5479860232332 0  40.7083801742321 113.2629608675606 0  37.02014754791168 119.0817718975441 0  33.49364883372994 125.000000381329 0  30.13156199866361 131.0131521097709 0  26.9364401549829 137.1166607985551 0  23.91070965524918 143.3058914868915 0  21.05666818346614 149.576144185037 0  18.37648306853811 155.9226573275967 0  15.8721895918909 162.3406114925245 0  13.54568948170046 168.8251329701392 0  11.39874945301878 175.3712974960928 0  9.432999857087736 181.9741340206533 0  7.649933466342702 188.6286284076045 0  6.050904301250966 195.3297273853278 0  4.637126656808988 202.0723421730917 0  3.409674127767772 208.8513525589684 0  2.369478824521138 215.6616106615248 0  1.517330660909465 222.4979448382452 0  0.8538767414496533 229.355163714981 0  0.3796208887135322 236.2280599646376 0  0.09492324266324204 243.1114144478261 0  0.0949232442452228 256.8885856095658 0  0.3796208935834784 263.7719401236316 0  0.8538767530323526 270.6448364248016 0  1.517330679476544 277.5020553295092 0  2.369478854618649 284.3383895555228 0  3.409674170191892 291.1486476952655 0  4.6371267162381 297.9276581311522 0  6.050904381420935 304.6702729724059 0  7.649933562385399 311.3713719716595 0  9.43299997979841 318.0258664133013 0  11.3987495994252 324.6287029719946 0  13.54568965885832 331.174867545904 0  15.87218979367188 337.6593890464085 0  18.37648329843151 344.0773432384132 0  21.05666844777872 350.423856417535 0  23.91070995156048 356.6941091410045 0  26.93644048988043 362.8833398632205 0  30.13156235982007 368.9868485575877 0  33.49364924138357 375.0000003247478 0  37.0201480006036 380.9182288389023 0  40.70838066758398 386.7370398875706 0  44.55554644477201 392.4520147396792 0  48.55872386086904 398.0588135419111 0  52.71487295981296 403.5531785693063 0  57.02083760525949 408.9309374584583 0  61.47334790862246 414.1880064170849 0  66.06902271205095 419.320393319588 0  70.80437211216579 424.3242006890749 0  75.67580013809859 429.195628692521 0  80.6796075127923 433.930978054209 0  85.81199439754931 438.5266528008431 0  91.06906334717917 442.9791630582355 0  96.44682221438322 447.2851276501571 0  101.9411872243843 451.441276702356 0  107.5479859945825 455.4444540643537 0  113.2629608446994 459.2916198108319 0  119.0817718768376 462.9798524393601 0  125.0000003647644 466.5063511567065 0  131.0131521012763 469.8684379967393 0  137.1166607840049 473.0635598376539 0  143.3058914748804 476.0892903390826 0  149.5761441732679 478.9433318113714 0  155.9226573130112 481.6235169255377 0  162.3406114779862 484.1278104026658 0  168.8251329570439 486.4543105138039 0  175.3712974805475 488.601250542119 0  181.9741340135204 490.5670001408953 0  188.6286284005059 492.3500665318597 0  195.3297273788229 493.9490956972913 0  202.0723421640089 495.3628733414168 0  208.8513525529672 496.5903258712308 0  215.6616106544547 497.6305211744985 0  222.4979448327038 498.4826693384772 0  229.3551637102845 499.1461232581612 0  236.2280599621369 499.6203791111485 0  243.1114144470173 499.9050767573145 0  155.2373389820306 474.8197567317462 0  25.36256300907667 153.9152755065208 0  432.3709625126712 412.6214396304305 0  6.013151705810699 246.637913163471 0  246.6379131630491 493.986848294322 0  338.6995838441862 22.68244767887072 0  477.3175523131281 338.6995838660569 0  493.9868482700757 246.6379131399102 0  246.6201155078769 6.218451882810491 0  417.6179310263282 72.7156044707053 0  102.2232990934413 445.0100869616822 0  63.66330858966404 92.20354579482142 0  391.3105220491464 50.73522820883105 0  72.79295043967942 418.0702734974704 0  448.290574428537 108.25674339002 0  402.4604651193511 440.7462829841712 0  97.55317348421397 59.11376320116034 0  136.7376477664901 33.58246472647134 0  363.3288394375288 465.6947312928271 0  44.0678766556007 381.0860953771871 0  469.6905266180034 142.3890690100806 0  22.68244791668644 338.6995843487432 0  338.699584349159 477.317552078365 0  173.389488083762 18.6681884918202 0  483.4809734778481 179.7121987795732 0  13.50237455842738 306.4709525540879 0  305.9825168523021 487.24416992
[...]
<PointData  Vectors="f_12"> 
<DataArray  type="Float64"  Name="f_12"  NumberOfComponents="3" format="ascii">5.6559370807818266e-01 3.0767562652986907e-01 6.7656431089705726e-01  5.4105759927055430e-01 2.1649124502787098e-01 6.4906988247370312e-01  5.7243314578491289e-01 3.5188151858572403e-01 6.6734896812663913e-01  5.7612386919268821e-01 4.5466079090988004e-01 6.0479545004882673e-01  5.7252464000644954e-01 3.5262846322966274e-01 6.6710075308789019e-01  5.7260762208632610e-01 3.5331175882178895e-01 6.6687106108830141e-01  5.7268670793684073e-01 3.5396815285261879e-01 6.6664811735851348e-01  5.7275861307345288e-01 3.5456930184383356e-01 6.6644202181327894e-01  5.7282493763199782e-01 3.5512781907175417e-01 6.6624882651710415e-01  5.7288561858915565e-01 3.5564210465517898e-01 6.6606948376667985e-01  5.7294081279407605e-01 3.5611271128932437e-01 6.6590418137460883e-01  5.7299093638097975e-01 3.5654253495643240e-01 6.6575217300788248e-01  5.7303571854516389e-01 3.5692859358351170e-01 6.6561478000721352e-01  5.7307497309384992e-01 3.5726863459243358e-01 6.6549311413168932e-01  5.7310624062616444e-01 3.5754064969708566e-01 6.6539531435119392e-01  5.7313786236332920e-01 3.5781672060717512e-01 6.6529563317464691e-01  5.7315698537816706e-01 3.5798444289622949e-01 6.6523480626569165e-01  5.7317543615248256e-01 3.5814668910279557e-01 6.6517578650889331e-01  5.7318765125459481e-01 3.5825464994591316e-01 6.6513632785274746e-01  5.7319512802382000e-01 3.5832117948497222e-01 6.6511186355305663e-01  5.7319829871789740e-01 3.5834995912348422e-01 6.6510106217613918e-01  5.7319364910124915e-01 3.5831023756680552e-01 6.6511516260046988e-01  5.7318334119221448e-01 3.5822098565225563e-01 6.6514723584180235e-01  5.7317067714764247e-01 3.5811123046197468e-01 6.6518663613895879e-01  5.7315220830026492e-01 3.5795091814421420e-01 6.6524427038810652e-01  5.7312644175200989e-01 3.5772750333659020e-01 6.6532447570480369e-01  5.7309283189648741e-01 3.5743658923146915e-01 6.6542867601121680e-01  5.7305680751617649e-01 3.5712586860118550e-01 6.6553948278416075e-01  5.7301508050005479e-01 3.5676732795117877e-01 6.6566675175423551e-01  5.7296387943578375e-01 3.5632919404569463e-01 6.6582151130656042e-01  5.7290884970744649e-01 3.5586085743591184e-01 6.6598585326714455e-01  5.7284636996066129e-01 3.5533230547065231e-01 6.6616994710203181e-01  5.7277683805630519e-01 3.5474774889476623e-01 6.6637199796747626e-01  5.7270194940694452e-01 3.5412260540629487e-01 6.6658611154455638e-01  5.7261633217797292e-01 3.5341341761648865e-01 6.6682658791928362e-01  5.7252387876753030e-01 3.5265394919722570e-01 6.6708134894936033e-01  5.7242629167218761e-01 3.5185934958252046e-01 6.6734466774318002e-01  5.7231737751274669e-01 3.5098101912825153e-01 6.6763192123415305e-01  5.7219638989235189e-01 3.5001546067129258e-01 6.6794314399116750e-01  5.7206845839477105e-01 3.4900553246717991e-01 6.6826350432214543e-01  5.7193364093093224e-01 3.4795330033672012e-01 6.6859157434895200e-01  5.7178557410937492e-01 3.4681147703738613e-01 6.6894100782043220e-01  5.7162378160445382e-01 3.4557919722369124e-01 6.6931061577073503e-01  5.7145200867200241e-01 3.4428864996655906e-01 6.6968901976586714e-01  5.7126618072130042e-01 3.4291203795098946e-01 6.7008287551956314e-01  5.7106683638153333e-01 3.4145636587453604e-01 6.7048848749936918e-01  5.7085375320132570e-01 3.3992389928704914e-01 6.7090320870461140e-01  5.7062667785139487e-01 3.3831629274724595e-01 6.7132487529449125e-01  5.7037802129225568e-01 3.3658520458193192e-01 6.7176283990933772e-01  5.7011401148413110e-01 3.3477768480508446e-01 6.7220325185863850e-01  5.6983127243279785e-01 3.3287711391758545e-01 6.7264642972845623e-01  5.6952834534039709e-01 3.3087671769442301e-01 6.7309184137015876e-01  5.6920479287028125e-01 3.2878098378654458e-01 6.7353421151053050e-01  5.6885460095023033e-01 3.2655654214136443e-01 6.7397689849099218e-01  5.6848064315103952e-01 3.2422902884039884e-01 6.7440988774181831e-01  5.6808215783930849e-01 3.2180053243640722e-01 6.7482841961940454e-01  5.6765272018505109e-01 3.1923917235737848e-01 6.7523250862915440e-01  5.6719336767520967e-01 3.1655951669750199e-01 6.7561434196008541e-01  5.6670378976232993e-01 3.1376684752212092e-01 6.7596607331836700e-01  5.6618848684823364e-01 3.1088951614566074e-01 6.7628568599848715e-01  5.6499789709075154e-01 3.0451107279014583e-01 6.7678844293281915e-01  5.6435092593836755e-01 3.0117101851604067e-01 6.7695197794685835e-01  5.6366067852045354e-01 2.9770203870910994e-01 6.7704406614204937e-01  5.6291301714128361e-01 2.9404390732301877e-01 6.7705225611184949e-01  5.6211399370174087e-01 2.9024512126497765e-01 6.7696423939413797e-01  5.6126006068847178e-01 2.8629860514701322e-01 6.7676404826654613e-01  5.6034431108926475e-01 2.8219500116431345e-01 6.7643357657801284e-01  5.5936338513805828e-01 2.7793228798805836e-01 6.7595462697802577e-01  5.5831600519967206e-01 2.7352388061334948e-01 6.7530869012849959e-01  5.5719883976774609e-01 2.6897481126822398e-01 6.7447480600992138e-01  5.5599598171499609e-01 2.6424229236999092e-01 6.7341579911464766e-01  5.5471978038447090e-01 2.5939623195378403e-01 6.7212346634796405e-01  5.5335565572426870e-01 2.5440207490008149e-01 6.7055719504488831e-01  5.5189529994795128e-01 2.4925710044161256e-01 6.6867951793860569e-01  5.5033819623099378e-01 2.4398618125377983e-01 6.6645851922318478e-01  5.4868224427715395e-01 2.3861105960150458e-01 6.6386166931291368e-01  5.4692301415653366e-01 2.3314452917089054e-01 6.6084806902761561e-01  5.4505542509992289e-01 2.2760355309306707e-01 6.5737439277313814e-01  5.4307260692658899e-01 2.2199992736961824e-01 6.5338976981557895e-01  5.4097590413597019e-01 2.1637033976544923e-01 6.4885677198374669e-01  5.3878072657430143e-01 2.1078530247835350e-01 6.4377388855546192e-01  5.3645120651314981e-01 2.0520247133894448e-01 6.3800703106339018e-01  5.3401446453059376e-01 1.9971801405001235e-01 6.3158351263426649e-01  5.3147281204705843e-01 1.9437062919857734e-01 6.2446996644215147e-01  5.2883557366571121e-01 1.8921966763304654e-01 6.1664813131236806e-01  5.2612066759394027e-01 1.8433208869415557e-01 6.0813658811072091e-01  5.2334827192581823e-01 1.7977144031810632e-01 5.9897004240615648e-01  5.2054703496703025e-01 1.7560679106944999e-01 5.8922665032868204e-01  5.1774819667570915e-01 1.7189312873257936e-01 5.7900493216753612e-01  5.1499308544659639e-01 1.6869332197007536e-01 5.6846583466763123e-01  5.1232801088495494e-01 1.6604327407596137e-01 5.5781185834834857e-01  5.0980126932876635e-01 1.6395959888450262e-01 5.4728273091729251e-01  5.0747034662271429e-01 1.6243974207505857e-01 5.3718608658413736e-01  5.0535815257411909e-01 1.6142622082031585e-01 5.2770046394726700e-01  5.0351035837949920e-01 1.6085308168263734e-01 5.1912746991724978e-01  5.0198979541718947e-01 1.6062987181595217e-01 5.1186592292077937e-01  5.0080429195377263e-01 1.6063296798028481e-01 5.0606317009777202e-01  4.9996671839639967e-01 1.6075411213062116e-01 5.0187947446410208e-01  4.9955178821204849e-01 1.6088426037555692e-01 4.9977023105805091e-01  4.9958027076506112e-01 1.6096709638452975e-01 4.9988498859092168e-01  5.0005643444262238e-01 1.6102685918116261e-01 5.0223555574966749e-01  5.0118287092323421e-01 1.6114810904671206e-01 5.0775618070332917e-01  5.0302375612524297e-01 1.6159756668393077e-01 5.1655395972605789e-01  5.0582713926667655e-01 1.6285104841829731e-01 5.2945824147015963e-01  5.0983869011115368e-01 1.6575328782220630e-01 5.4692287195746137e-01  5.1538604177716130e-01 1.7160725149249251e-01 5.6929467154827385e-01  5.2265754356196725e-01 1.8212518553175616e-01 5.9565083766395588e-01  5.3158746860114015e-01 1.9917944332265219e-01 6.2341021146306785e-01  5.4172295344438770e-01 2.2430349892453672e-01 6.4844472820540322e-01  5.5201446209905558e-01 2.5715239475005469e-01 6.6562946383435184e-01  5.6116498633557532e-01 2.9480981782830123e-01 6.7220732833702868e-01  5.6813852515762453e-01 3.3289912695357304e-01 6.6852102602788521e-01  5.7275030380996850e-01 3.6772985436025318e-01 6.5802526638548120e-01  5.7532170803219573e-01 3.9740318778123290e-01 6.4425937077773010e-01  5.7640391210197117e-01 4.2136175590207037e-01 6.2990907645096561e-01  5.7653357128400395e-01 4.4019090733192434e-01 6.1652560967564241e-01  5.7545510516765552e-01 4.6522153396785720e-01 5.9525412510919185e-01  5.7467843528993345e-01 4.7459132725467712e-01 5.8626095336441153e-01  5.7395935147083788e-01 4.8048642878158299e-01 5.7999375072435211e-01  5.7331841631279656e-01 4.8505470326919564e-01 5.7492080641336163e-01  5.7280302279108064e-01 4.8835944589934527e-01 5.7110692710437783e-01  5.7244412936161959e-01 4.9046461106413392e-01 5.6859617384842975e-01  5.7224645008523667e-01 4.9157026249231789e-01 5.6725224812131481e-01  5.7220935094737979e-01 4.9176772699527599e-01 5.6700763566771917e-01  5.7233691890971272e-01 4.9105201834817674e-01 5.6787667744969561e-01  5.7258893969535973e-01 4.8959916825620053e-01 5.6962186801507342e-01  5.7303909895750693e-01 4.8685482902902383e-01 5.7284779198029123e-01  5.7360137985475734e-01 4.8304212128342833e-01 5.7715960180376713e-01  5.7426005213293718e-01 4.7793687185796369e-01 5.8268150521426454e-01  5.7496353867121763e-01 4.7141159699080054e-01 5.8936368834705000e-01  5.7566524936614549e-01 4.6290738861645719e-01 5.9749615364585973e-01  5.7626597385571343e-01 4.5195588272550546e-01 6.0715094342218645e-01  5.7660515223479480e-01 4.3826483495264057e-01 6.1809485630819749e-01  5.7649421576533544e-01 4.2136072840014505e-01 6.3010412063629151e-01  5.7566923237904255e-01 4.0078948736600872e-01 6.4267416333173921e-01  5.7382437320060187e-01 3.7637401159719763e-01 6.5486351869875603e-01  5.7062012200600210e-01 3.4827201400079416e-01 6.6518406866392787e-01  5.6596589252472518e-01 3.1792267709502725e-01 6.7174528928805832e-01  5.5999575047473382e-01 2.8744273653978825e-01 6.7282061977625307e-01  5.5306077890492600e-01 2.5883827459060982e-01 6.6770097940657647e-01  5.4570289991030685e-01 2.3384065886151487e-01 6.5685000446901298e-01  5.3852424531073373e-01 2.1352290365433577e-01 6.4191932870041712e-01  5.3196720461274682e-01 1.9792867960309571e-01 6.2501183946104955e-01  5.2630327039181191e-01 1.8653762597614559e-01 6.0809969828527721e-01  5.2158622760136952e-01 1.7847393444527082e-01 5.9244640614288835e-01  5.1778024085994601e-01 1.7291018466120808e-01 5.7880108804160757e-01  5.1478719914958038e-01 1.6914456900996921e-01 5.6742978866787397e-01  5.1252124189393133e-01 1.6665609597368031e-01 5.5844273925045784e-01  5.1086541608280589e-01 1.6504001977220539e-01 5.5166976307286153e-01  5.0975152580544136e-01 1.6404925132178980e-01 5.4701240854060962e-01  5.0904854802650135e-01 1.6345672832502117e-01 5.4403530686863044e-01  5.0875793660272173e-01 1.6319330701367360e-01 5.4280444736934308e-01  5.0883156716281586e-01 1.6319537848864124e-01 5.4313805449115471e-01  5.0923707670032492e-01 1.6344170857494683e-01 5.4489352373492694e-01  5.0994647391474601e-01 1.6393539772504720e-01 5.4792564582529546e-01  5.1093071885630037e-01 1.6469541957862247e-01 5.5207070375785328e-01  5.1213210012461086e-01 1.6572070479424222e-01 5.5704160754482346e-01  5.1353231128181165e-01 1.6704028492107825e-01 5.6271324055285710e-01  5.1512826217827989e-01 1.6869975133688991e-01 5.6902333877289613e-01  5.1685078692076092e-01 1.7066618501154479e-01 5.7565340479332272e-01  5.1867577190007796e-01 1.7294454780928370e-01 5.8247396857341371e-01  5.2058208356866797e-01 1.7553071466643672e-01 5.8937841725725149e-01  5.2255717897518994e-01 1.7842920838815329e-01 5.9629575181978645e-01  5.2452856076226795e-01 1.8154657899499915e-01 6.0295582374001866e-01  5.2652317137438820e-01 1.8492242118527141e-01 6.0945348020123657e-01  5.2849385939472182e-01 1.8847427369856948e-01 6.1562646514633912e-01  5.3045358106075968e-01 1.9223158723319669e-01 6.2152442381515483e-01  5.3236469588969282e-01 1.9610283839279274e-01 6.2703967159716789e-01  5.3421835513869098e-01 2.0006362949830900e-01 6.3216424619467637e-01  5.3601916970084551e-01 2.0410779856194067e-01 6.3692472399587707e-01  5.3776332626053791e-01 2.0821369193989137e-01 6.4132834219479040e-01  5.3944217104725334e-01 2.1234473652823727e-01 6.4536854535853971e-01  5.4260719777124811e-01 2.2063150722918634e-01 6.5244356648860635e-01  5.4408879692331025e-01 2.2474509187229627e-01 6.5550162909296483e-01  5.4551157367240422e-01 2.2884308534159808e-01 6.5828227853578525e-01  5.4686932468098715e-01 2.3289303204364104e-01 6.6078636638602684e-01  5.4816552555295439e-01 2.3689169247922398e-01 6.6303838690672168e-01  5.4940270910613520e-01 2.4083370910614652e-01 6.6505701657985283e-01  5.5058264012464053e-01 2.4471254773316170e-01 6.6685927853752702e-01  5.5170713554745188e-01 2.4852181651058899e-01 6.6846107172315195e-01  5.5277895823016332e-01 2.5225972792469004e-01 6.6987938138132119e-01  5.5380009772668193e-01 2.5592259820188140e-01 6.7112811352499890e-01  5.5477233085543265e-01 2.5950701004454130e-01 6.7222122098987502e-01  5.5569646089313429e-01 2.6300436485065093e-01 6.7316992897957095e-01  5.5658032077075581e-01 2.6643700548752414e-01 6.7399189797124848e-01  5.5742341453817434e-01 2.6979396345726092e-01 6.7469590047875783e-01  5.5822218905127663e-01 2.7305293460860103e-01 6.7528719621750277e-01  5.5899069990547146e-01 2.7626487211403861e-01 6.7578372871893255e-01  5.5972249405816032e-01 2.7939516712798285e-01 6.7618879287469402e-01  5.6041298825659991e-01 2.8241669416650461e-01 6.7650630720811422e-01  5.6107395095674584e-01 2.8537454967897624e-01 6.7675087771365905e-01  5.6170477504681449e-01 2.8825851987869555e-01 6.7692667329058875e-01  5.6230667286380065e-01 2.9107008265361584e-01 6.7704034444193784e-01  5.6288019848681536e-01 2.9380587339730241e-01 6.7709710595819617e-01  5.6342845557745913e-01 2.9647509021615226e-01 6.7710252584344810e-01  5.6395247732157261e-01 2.9907858933925402e-01 6.7706111293478644e-01  5.6444984001638765e-01 3.0159875279492782e-01 6.7697810467965025e-01  5.6492511859808470e-01 3.0405463320550558e-01 6.7685675358698050e-01  5.6538110973380351e-01 3.0645558516984522e-01 6.7670120630588504e-01  5.6581216357911335e-01 3.0876869654337091e-01 6.7651618240004430e-01  5.6622642819560787e-01 3.1103326106194923e-01 6.7630268098377733e-01  5.6662184548842176e-01 3.1323405420267253e-01 6.7606477645185326e-01  5.6699854427888907e-01 3.1536834051781520e-01 6.7580602865140005e-01  5.6735814916675353e-01 3.1744199055133682e-01 6.7552818390044755e-01  5.6770128114168117e-01 3.1945500330617205e-01 6.7523397555151343e-01  5.6802951087389830e-01 3.2141369178265650e-01 6.7492470013203654e-01  5.6834457499767010e-01 3.2332558533040573e-01 6.7460120259752898e-01  5.6864209238743102e-01 3.2516061356307618e-01 6.7427097063285180e-01  5.6892500111937894e-01 3.2693396435296695e-01 6.7393340707734073e-01  5.6919942011794644e-01 3.2868159661761398e-01 6.7358321651966746e-01  5.6945883682424614e-01 3.3035955131382544e-01 6.7323087362400047e-01  5.6970440816112144e-01 3.3197260371589177e-01 6.7287722101661940e-01  5.6993986325677526e-01 3.3354235641822122e-01 6.7251920142941168e-01  5.7016379775879289e-01 3.3505716141945885e-01 6.7216081288999474e-01  5.7037820827980512e-01 3.3652878723718888e-01 6.7180059212531673e-01  5.7058001772531530e-01 3.3793308403825323e-01 6.7144583648923173e-01  5.7077350732917487e-01 3.3929838684826191e-01 6.7109067593523508e-01  5.7095667932186234e-01 3.4060826571809266e-01 6.7074044743985795e-01  5.7113142701077180e-01 3.4187425575394642e-01 6.7039312055986844e-01  5.7129855663647966e-01 3.4310043280520564e-01 6.7004863003186599e-01  5.7145480422514061e-01 3.4426138617091451e-01 6.6971515387897551e-01  5.7160228959241288e-01 3.4537054523921407e-01 6.6938968726026515e-01  5.7174414611208235e-01 3.4644970974616524e-01 6.6906687027116329e-01  5.7187686326964804e-01 3.4747090608494335e-01 6.6875569981857053e-01  5.7200127506396747e-01 3.4843875004350772e-01 6.6845576597347967e-01  5.7211913994265284e-01 3.4936529998619581e-01 6.6816392084883514e-01  5.7223052842839173e-01 3.5024961366953095e-01 6.6788135458663989e-01  5.7233397257155560e-01 3.5107895933408789e-01 6.6761252115246816e-01  5.7024700640538462e-01 3.3562540578824290e-01 6.7202343878927728e-01  5.1390877453832540e-01 1.6742055747100135e-01 5.6421789153610924e-01  5.7262896690338227e-01 3.5351639029083587e-01 6.6679248367303690e-01  5.4017803561829092e-01 2.1421421382572903e-01 6.4707677554151466e-01  5.7235790167283040e-01 3.5127122189438897e-01 6.6755010874599630e-01  5.0347220086710087e-01 1.6199809437092041e-01 5.1858065243451879e-01  5.7070255369616740e-01 3.3885025802975005e-01 6.7118676892218643e-01  5.6525485400847664e-01 3.0585826874282473e-01 6.7670689852318611e-01  5.7589581413000135e-01 4.5933336904601907e-01 6.0076090594580800e-01  5.1621682339437702e-01 1.7006840485895805e-01 5.7319937417639821e-01  5.6782843761226298e-01 3.2020997666142165e-01 6.7511749536006083e-01  5.1277817911775192e-01 1.6707538534571192e-01 5.5943543055665945e-01  5.0405562654561387e-01 1.6099795851767704e-01 5.2168527809633547e-01  5.6557817256920773e-01 3.0750762881686111e-01 6.7662156377500504e-01  5.3510413184693251e-01 2.0212855361284501e-01 6.3450618609763509e-01  5.7301360717215288e-01 3.5675320842340380e-01 6.6567240522885751e-01  5.4816597864425176e-01 2.4225594458861388e-01 6.6085376022331288e-01  5.7657574365483744e-01 4.2795395770008110e-01 6.2555673646375110e-01  5.7317007023776123e-01 3.5810202722289697e-01 6.6519141583971508e-01  5.6200745389803608e-01 2.8966561718688644e-01 6.7699028434345176e-01  5.4769558508549498e-01 2.3551772121015568e-01 6.6220165546359155e-01  5.5695468894658429e-01 2.6791533813844604e-01 6.7431721922143228e-01  5.7314322475423340e-01 3.5786395198912746e-01 6.6527858594200207e-01  5.7352597470538080e-01 4.8364146300738398e-01 5.7651910995063271e-01  5.5640144948400205e-01 2.6581953970456967e-01 6.7379168875113271e-01  5.5217132228750043e-01 2.5012871570373624e-01 6.6908824283297907e-01  5.7298277843817391e-01 3.5647200817358349e-01 6.6577747056990211e-01  5.7135232997275665e-01 3.4349751560454300e-01 6.6993595808322104e-01  5.2543056971155810e-01 1.8304981887838975e-01 6.0592200823996034e-01  5.4541324621472365e-01 2.3575900384956056e-01 6.5540756686141266e-01  5.6898738209937827e-01 3.2739388281494108e-01 6.7381435345645124e-01  5.7199777365210069e-01 3.4845168137489069e-01 6.6843731786011429e-01  5.7243998970145826e-01 4.9052098296158048e-01 5.6854384283431747e-01  5.6067987746769077e-01 2.8368553479502640e-01 6.7656773606183762e-01  5.4745345338113560e-01 2.3467962723990080e-01 6.6181844357220554e-01  5.7276725767818348e-01 3.5464146194280877e-01 6.6641743773266060e-01  4.9949107819096816e-01 1.6088872691035222e-01 4.9946463183163387e-01  5.0874194203503986e-01 1.6312978619880225e-01 5.4275431899529669e-01  5.7191600361556894e-01 3.4777370787614947e-01 6.6866277711380084e-01  5.6929357609009834e-01 3.2928630675979670e-01 6.7345903946764907e-01  5.3338451795618091e-01 1.9825848394995024e-01 6.2988716849607906e-01  5.7371190081390488e-01 3.7784165651259238e-01 6.5369410537784545e-01  5.6742655390113117e-01 3.1791302668233495e-01 6.7542665779851629e-01  5.7310418484115933e-01 3.5753215198564064e-01 6.6539554182366656e-01  5.6992825488766630e-01 3.3352418917532339e-01 6.7249860308797482e-01  5.7368348150850912e-01 4.8252620209873587e-01 5.7776100138668196e-01  5.1729513129391558e-01 1.7448999790958811e-01 5.7643314999532480e-01  5.6320987494683739e-01 2.9548249183496345e-01 6.7706230628161279e-01  5.2450377136291326e-01 1.8162574523879380e-01 6.0284559175206054e-01  5.7084206330374754e-01 3.3978637387453664e-01 6.7096147440317488e-01  5.7233497144497902e-01 3.5112052014749812e-01 6.6758750749912288e-01  5.6418691145896904e-01 3.0025988684133054e-01 6.7702810857827556e-01  5.6754695091100449e-01 3.2815114409460178e-01 6.6979303467017848e-01  5.6007352244597808e-01 2.8092208484806802e-01 6.7635938381552574e-01  5.1950538933623247e-01 1.7405129414728424e-01 5.8550234243858013e-01  5.7150508433721536e-01 3.4468447699723531e-01 6.6957452715402577e-01  5.6677691255