<?xml version="1.0"?>
<VTKFile type="UnstructuredGrid"  version="0.1"  >
<UnstructuredGrid>
<Piece  NumberOfPoints="4940" NumberOfCells="9650">
<Points>
<DataArray  type="Float64"  NumberOfComponents="3"  format="ascii">500 250 0  0 250 0  250 500 0  250 0 0  256.8885856082646 499.9050767557906 0  263.7719401218049 499.6203791065173 0  270.6448364229772 499.1461232471188 0  277.5020553257866 498.4826693209355 0  284.3383895508592 497.6305211460281 0  291.1486476865662 496.5903258312597 0  297.9276581259182 495.3628732847843 0  304.6702729675493 493.9490956196674 0  311.3713719748657 492.3500664368026 0  318.0258664141369 490.5670000199653 0  324.6287029687753 488.6012504015818 0  331.1748675330201 486.4543103455647 0  337.6593890460416 484.1278102064655 0  344.0773432429536 481.6235166997244 0  350.4238564271474 478.9433315480048 0  356.694109139292 476.0892900492477 0  362.88333985546 473.0635595140469 0  368.9868485575419 469.8684376402048 0  375.0000003153078 466.5063507640667 0  380.9182288257928 462.9798520074548 0  386.7370398729688 459.2916193419558 0  392.4520147244077 455.444453565817 0  398.0588135356345 451.4412761437442 0  403.5531785622926 447.285127045646 0  408.9309374414144 442.9791624087773 0  414.1880064015299 438.5266521049243 0  419.3203932989752 433.9309773069245 0  424.324200661095 429.1956279150535 0  429.1956286596235 424.3241998957182 0  433.9309780058756 419.3203925397119 0  438.5266527445345 414.1880056671062 0  442.9791630130591 408.9309367076756 0  447.2851276060475 403.5531778422888 0  451.4412766621026 398.0588128303826 0  455.4444540361634 392.4520140460735 0  459.2916197786263 386.7370392045948 0  462.9798524073514 380.9182281752347 0  466.5063511234856 374.9999996927758 0  469.8684379657123 368.9868479560565 0  473.0635598144817 362.8833392617846 0  476.0892903190255 356.6941085676214 0  478.9433317963513 350.4238558609745 0  481.6235169154735 344.0773427117675 0  484.12781039012 337.6593885555221 0  486.4543105028062 331.1748670749914 0  488.601250531677 324.6287025528375 0  490.5670001317469 318.0258660188321 0  492.3500665291326 311.3713716102628 0  493.949095695951 304.6702726271575 0  495.3628733416623 297.9276578347343 0  496.5903258712341 291.1486474470129 0  497.6305211749058 284.3383893426084 0  498.4826693388848 277.502055163614 0  499.1461232580606 270.6448362909296 0  499.6203791109319 263.7719400417897 0  499.9050767571306 256.8885855596534 0  499.9050767559877 243.1114143988867 0  499.6203791069493 236.2280598860241 0  499.1461232485393 229.3551635941651 0  498.4826693235677 222.4979446979962 0  497.6305211491849 215.6616104719064 0  496.5903258357701 208.8513523404629 0  495.3628732906988 202.0723419043604 0  493.9490956264813 195.3297270628552 0  492.3500664487791 188.6286280724281 0  490.5670000344809 181.9741336371959 0  488.6012504175981 175.3712970824318 0  486.4543103623226 168.8251325157939 0  484.1278102222298 162.3406109960628 0  481.6235167152198 155.9226567951971 0  478.9433315621651 149.5761436051346 0  476.0892900516498 143.3058908657982 0  473.063559513628 137.1166601437124 0  469.8684376406648 131.0131514433083 0  466.5063507675389 124.9999996907064 0  462.9798520124137 119.0817711822745 0  459.2916193464549 113.2629601339176 0  455.4444535642773 107.5479852733717 0  451.4412761528674 101.9411864767781 0  447.2851270583545 96.44682145403524 0  442.9791624165781 91.06906256805769 0  438.5266521117469 85.81199360630404 0  433.9309773156125 80.67960671046254 0  429.1956279150353 75.67579933888632 0  424.3241998888952 70.80437133373906 0  419.3203925223282 66.06902197812161 0  414.1880056411937 61.47334723289828 0  408.9309366751728 57.0208369601728 0  403.5531778009394 52.71487236176898 0  398.058812796452 48.55872331295853 0  392.4520140187753 44.55554594490843 0  386.7370391799677 40.70838020528396 0  380.9182281475119 37.02014757560744 0  374.9999996718656 33.49364886444181 0  368.9868479340393 30.13156202237255 0  362.8833392380029 26.93644017348339 0  356.6941085456942 23.91070967062674 0  350.4238558420009 21.0566681953261 0  344.0773426899492 18.37648307566465 0  337.6593885328982 15.87218960140942 0  331.1748670549786 13.54568949032341 0  324.6287025315056 11.39874946165088 0  318.0258660010876 9.432999863235466 0  311.3713716017894 7.649933468721599 0  304.6702726190621 6.050904302234756 0  297.9276578269805 4.637126656823085 0  291.148647441857 3.409674127905504 0  284.3383893425031 2.369478825079682 0  277.502055159398 1.517330660648639 0  270.6448362875833 0.853876741662134 0  263.7719400401456 0.3796208889774277 0  256.8885855592052 0.09492324285704967 0  243.1114143979462 0.09492324403817065 0  236.2280598850882 0.3796208931023841 0  229.3551635938215 0.8538767514891958 0  222.4979446968584 1.517330676558146 0  215.6616104703111 2.369478851036291 0  208.8513523382973 3.409674164591252 0  202.0723419066374 4.637126708856528 0  195.3297270659513 6.050904372824903 0  188.628628074828 7.649933550613184 0  181.9741336377093 9.432999965373938 0  175.3712970793675 11.39874958336037 0  168.8251325057572 13.54568964112298 0  162.340610986655 15.87218978129263 0  155.9226567874317 18.37648328793418 0  149.576143602509 21.05666843898663 0  143.3058908718157 23.91070994551046 0  137.1166601505524 26.93644048291054 0  131.0131514451933 30.13156235831508 0  124.9999996848412 33.49364923584736 0  119.0817711715717 37.0201479941652 0  113.2629601211624 40.70838066187849 0  107.5479852622251 44.55554644345162 0  101.9411864693332 48.55872385260452 0  96.44682143286516 52.71487295812284 0  91.06906254351222 57.02083760363669 0  85.81199358272519 61.4733479087879 0  80.67960667988106 66.06902271253972 0  75.67579930062769 70.80437212218331 0  70.80437129287643 75.67580015310926 0  66.06902193673014 80.67960752263491 0  61.47334718684866 85.81199441168215 0  57.02083692524275 91.0690633672404 0  52.71487232786438 96.44682224262129 0  48.55872328070024 101.941187247437 0  44.55554591578033 107.5479860232332 0  40.7083801742321 113.2629608675606 0  37.02014754791168 119.0817718975441 0  33.49364883372994 125.000000381329 0  30.13156199866361 131.0131521097709 0  26.9364401549829 137.1166607985551 0  23.91070965524918 143.3058914868915 0  21.05666818346614 149.576144185037 0  18.37648306853811 155.9226573275967 0  15.8721895918909 162.3406114925245 0  13.54568948170046 168.8251329701392 0  11.39874945301878 175.3712974960928 0  9.432999857087736 181.9741340206533 0  7.649933466342702 188.6286284076045 0  6.050904301250966 195.3297273853278 0  4.637126656808988 202.0723421730917 0  3.409674127767772 208.8513525589684 0  2.369478824521138 215.6616106615248 0  1.517330660909465 222.4979448382452 0  0.8538767414496533 229.355163714981 0  0.3796208887135322 236.2280599646376 0  0.09492324266324204 243.1114144478261 0  0.0949232442452228 256.8885856095658 0  0.3796208935834784 263.7719401236316 0  0.8538767530323526 270.6448364248016 0  1.517330679476544 277.5020553295092 0  2.369478854618649 284.3383895555228 0  3.409674170191892 291.1486476952655 0  4.6371267162381 297.9276581311522 0  6.050904381420935 304.6702729724059 0  7.649933562385399 311.3713719716595 0  9.43299997979841 318.0258664133013 0  11.3987495994252 324.6287029719946 0  13.54568965885832 331.174867545904 0  15.87218979367188 337.6593890464085 0  18.37648329843151 344.0773432384132 0  21.05666844777872 350.423856417535 0  23.91070995156048 356.6941091410045 0  26.93644048988043 362.8833398632205 0  30.13156235982007 368.9868485575877 0  33.49364924138357 375.0000003247478 0  37.0201480006036 380.9182288389023 0  40.70838066758398 386.7370398875706 0  44.55554644477201 392.4520147396792 0  48.55872386086904 398.0588135419111 0  52.71487295981296 403.5531785693063 0  57.02083760525949 408.9309374584583 0  61.47334790862246 414.1880064170849 0  66.06902271205095 419.320393319588 0  70.80437211216579 424.3242006890749 0  75.67580013809859 429.195628692521 0  80.6796075127923 433.930978054209 0  85.81199439754931 438.5266528008431 0  91.06906334717917 442.9791630582355 0  96.44682221438322 447.2851276501571 0  101.9411872243843 451.441276702356 0  107.5479859945825 455.4444540643537 0  113.2629608446994 459.2916198108319 0  119.0817718768376 462.9798524393601 0  125.0000003647644 466.5063511567065 0  131.0131521012763 469.8684379967393 0  137.1166607840049 473.0635598376539 0  143.3058914748804 476.0892903390826 0  149.5761441732679 478.9433318113714 0  155.9226573130112 481.6235169255377 0  162.3406114779862 484.1278104026658 0  168.8251329570439 486.4543105138039 0  175.3712974805475 488.601250542119 0  181.9741340135204 490.5670001408953 0  188.6286284005059 492.3500665318597 0  195.3297273788229 493.9490956972913 0  202.0723421640089 495.3628733414168 0  208.8513525529672 496.5903258712308 0  215.6616106544547 497.6305211744985 0  222.4979448327038 498.4826693384772 0  229.3551637102845 499.1461232581612 0  236.2280599621369 499.6203791111485 0  243.1114144470173 499.9050767573145 0  155.2373389820306 474.8197567317462 0  25.36256300907667 153.9152755065208 0  432.3709625126712 412.6214396304305 0  6.013151705810699 246.637913163471 0  246.6379131630491 493.986848294322 0  338.6995838441862 22.68244767887072 0  477.3175523131281 338.6995838660569 0  493.9868482700757 246.6379131399102 0  246.6201155078769 6.218451882810491 0  417.6179310263282 72.7156044707053 0  102.2232990934413 445.0100869616822 0  63.66330858966404 92.20354579482142 0  391.3105220491464 50.73522820883105 0  72.79295043967942 418.0702734974704 0  448.290574428537 108.25674339002 0  402.4604651193511 440.7462829841712 0  97.55317348421397 59.11376320116034 0  136.7376477664901 33.58246472647134 0  363.3288394375288 465.6947312928271 0  44.0678766556007 381.0860953771871 0  469.6905266180034 142.3890690100806 0  22.68244791668644 338.6995843487432 0  338.699584349159 477.317552078365 0  173.389488083762 18.6681884918202 0  483.4809734778481 179.7121987795732 0  13.50237455842738 306.4709525540879 0  305.9825168523021 487.24416992
[...]
<PointData  Vectors="f_12"> 
<DataArray  type="Float64"  Name="f_12"  NumberOfComponents="3" format="ascii">5.3294681080966810e-01 1.0894093864207136e-01 6.8406142370571266e-01  4.6935040173067766e-01 8.9766600153364351e-02 3.1645202526839145e-01  5.6854594683650495e-01 1.7012104115754328e-01 8.1038211568097507e-01  6.1208149090124486e-01 4.9247932434554265e-01 7.0905383649538400e-01  5.6916292703768334e-01 1.7151364227197702e-01 8.1193780904723156e-01  5.6972042346565666e-01 1.7278322400830717e-01 8.1332206244093530e-01  5.7025870994384542e-01 1.7401837999279496e-01 8.1464050200254612e-01  5.7074604535368978e-01 1.7514453273534686e-01 8.1581914939289601e-01  5.7119693878343902e-01 1.7619345635355022e-01 8.1689643228199926e-01  5.7160967307780475e-01 1.7715946548986586e-01 8.1787100260591361e-01  5.7198498174569745e-01 1.7804258277641577e-01 8.1874824670092072e-01  5.7232631050973093e-01 1.7884975761806990e-01 8.1953833375923502e-01  5.7263056807103885e-01 1.7957255275441733e-01 8.2023616817967193e-01  5.7289565258678354e-01 1.8020467733066473e-01 8.2083973818041522e-01  5.7309766016158992e-01 1.8068827249666095e-01 8.2129627302281072e-01  5.7331562559018845e-01 1.8121089594116385e-01 8.2178646724307880e-01  5.7342748812461719e-01 1.8148030722267133e-01 8.2203633297071721e-01  5.7354537849150800e-01 1.8176408834880103e-01 8.2229934276350769e-01  5.7361647453508002e-01 1.8193549658247152e-01 8.2245749066476892e-01  5.7365532182336809e-01 1.8202910658645655e-01 8.2254379184273185e-01  5.7366635111664765e-01 1.8205564449162837e-01 8.2256751748569701e-01  5.7361616958879680e-01 1.8193453081155644e-01 8.2245596943385579e-01  5.7352574798666345e-01 1.8171632227208687e-01 8.2225520371615424e-01  5.7342773752849929e-01 1.8147996795133992e-01 8.2203620940898303e-01  5.7328931011849282e-01 1.8114667506860788e-01 8.2172645003917599e-01  5.7309749850639591e-01 1.8068639113268084e-01 8.2129487935733714e-01  5.7284716948496106e-01 1.8008768917789653e-01 8.2072820545850322e-01  5.7259193678135134e-01 1.7947895450477544e-01 8.2014645611842885e-01  5.7230149923354812e-01 1.7878898121876177e-01 8.1947916255454856e-01  5.7194021567111897e-01 1.7793488818132921e-01 8.1864188921036840e-01  5.7156403744444861e-01 1.7704975676203236e-01 8.1776179298411877e-01  5.7114020424593959e-01 1.7605852038676051e-01 8.1675870072269363e-01  5.7067318722636506e-01 1.7497271444480247e-01 8.1564144946200923e-01  5.7018112429712020e-01 1.7383626352159154e-01 8.1444924910657890e-01  5.6961573296626555e-01 1.7254076176674127e-01 8.1306010351892133e-01  5.6901518288026320e-01 1.7117546670868125e-01 8.1156422483125623e-01  5.6839799003575908e-01 1.6978420737279756e-01 8.1000297794036591e-01  5.6770843165493545e-01 1.6824482493717918e-01 8.0823065573437791e-01  5.6694232610216722e-01 1.6655248047013135e-01 8.0622849531626672e-01  5.6614978551559214e-01 1.6482086109630575e-01 8.0411995772387412e-01  5.6533522614297149e-01 1.6306151015028009e-01 8.0191296494721154e-01  5.6444338198270061e-01 1.6115977576678348e-01 7.9945027625146536e-01  5.6347204211718682e-01 1.5911624048008124e-01 7.9671517693985316e-01  5.6246101128584469e-01 1.5702032881767036e-01 7.9380874021287207e-01  5.6137740059044061e-01 1.5480916231328382e-01 7.9062686081591094e-01  5.6023025671717130e-01 1.5250718338296759e-01 7.8718333277338981e-01  5.5902284305316263e-01 1.5012733399982009e-01 7.8347638822199162e-01  5.5775774249553833e-01 1.4767960136496702e-01 7.7950559442238687e-01  5.5637842259278802e-01 1.4506836198550305e-01 7.7506604521894829e-01  5.5493866515665702e-01 1.4239997715894262e-01 7.7032277157263618e-01  5.5342433554392101e-01 1.3966159648428403e-01 7.6520366008951834e-01  5.5182187232518198e-01 1.3683358633388690e-01 7.5965354293708742e-01  5.5014501053554643e-01 1.3395542906049823e-01 7.5369100563018032e-01  5.4834720913596857e-01 1.3095783838637035e-01 7.4713198237155953e-01  5.4646404043528440e-01 1.2791569826181393e-01 7.4007511900318002e-01  5.4450048070616852e-01 1.2484899287735997e-01 7.3251797126672213e-01  5.4241683026907461e-01 1.2171157208954672e-01 7.2427772546628610e-01  5.4023526614942163e-01 1.1855296596035240e-01 7.1541440919465993e-01  5.3796200398886018e-01 1.1539777294737341e-01 7.0591502374084214e-01  5.3562480601544216e-01 1.1227340240867575e-01 6.9593588814928442e-01  5.3037168837801807e-01 1.0585418755080028e-01 6.7238449345566231e-01  5.2764556554768838e-01 1.0279123658974486e-01 6.5967518297905836e-01  5.2482593080350814e-01 9.9822747726256017e-02 6.4617549806450170e-01  5.2184180618791232e-01 9.6899405474317288e-02 6.3149059734682889e-01  5.1875891888888204e-01 9.4115977255680661e-02 6.1592047482399548e-01  5.1557375149236040e-01 9.1482803522533226e-02 5.9941127295523600e-01  5.1228863195154384e-01 8.9043586890776183e-02 5.8194003194482913e-01  5.0890212827117587e-01 8.6811666960576017e-02 5.6347891186967136e-01  5.0544311824875632e-01 8.4839108380729972e-02 5.4416093685759825e-01  5.0192126062780140e-01 8.3157446007789917e-02 5.2402852104429665e-01  4.9829244737036710e-01 8.1789665314074722e-02 5.0280240870300574e-01  4.9464173325620459e-01 8.0796329197087138e-02 4.8098006931339149e-01  4.9095335213754238e-01 8.0236112647772570e-02 4.5845796466052807e-01  4.8755316787397901e-01 8.0399705087201914e-02 4.3696866133729412e-01  4.8344274248852198e-01 7.9509095086668924e-02 4.1197400248268862e-01  4.7357217669418095e-01 8.5663191083858600e-02 3.4722532022308811e-01  4.6166161931066829e-01 1.3087216290980680e-01 2.4728141509360968e-01  4.8677468980620237e-01 3.9290478487114067e-01 2.4178632096135783e-01  5.6108423606839319e-01 5.8808985273908287e-01 4.4179972364734715e-01  5.7002101063606680e-01 3.6236634295371800e-01 7.1548333079145809e-01  5.0775887872470227e-01 2.1731216892695743e-01 5.1384240454703078e-01  4.8143552222147895e-01 3.0824416538236898e-01 2.6384409899454891e-01  4.7127160073503660e-01 3.3265928733382250e-01 1.7933491648414238e-01  4.6861925932115484e-01 3.2483087489038631e-01 1.6765716693215704e-01  4.6826369969692727e-01 3.0379463885657076e-01 1.7951869803112067e-01  4.6933110423867397e-01 2.0034729515141805e-01 2.5793466830786982e-01  4.9936980868233655e-01 1.1649272166099427e-01 5.0971560881821654e-01  5.8602123309407494e-01 2.3090534641135679e-01 8.5382771922684986e-01  6.3607271574795576e-01 4.1889159550342886e-01 8.0017152619687504e-01  6.3752349401086483e-01 4.3256559487887980e-01 7.8939288815966335e-01  6.2745462630789228e-01 3.7782491601563750e-01 8.2495283418233745e-01  5.9371747853876999e-01 2.4443868160306279e-01 8.5718544122585638e-01  5.4159567123284025e-01 1.2379661428200692e-01 7.3128868114245371e-01  5.0027590828460922e-01 8.4879526538968034e-02 5.1898707128145594e-01  4.7388122775427033e-01 8.9328103584532928e-02 3.4911602703340566e-01  4.6064584750654047e-01 1.2883591310549666e-01 2.4206203126776452e-01  4.6075529438181922e-01 2.2151080881422641e-01 1.8838526849726731e-01  4.7642193992594956e-01 3.8346068623526131e-01 1.7797225295976146e-01  5.0336533396386840e-01 5.6935627709274939e-01 1.9375020758051706e-01  5.3379052951196648e-01 6.9277689915640506e-01 2.2455804094024007e-01  5.6092773389743866e-01 7.4409222557764954e-01 2.6752317418452404e-01  5.7465684464879452e-01 7.5823537823709042e-01 2.9052374926598223e-01  5.7868226520935495e-01 7.5981992398266407e-01 2.9903518688670844e-01  5.7058993899241339e-01 7.5573574981875624e-01 2.8246052774050961e-01  5.5045046779618911e-01 7.2756879183050305e-01 2.5086285560335198e-01  5.2058025862245683e-01 6.4191537275742472e-01 2.1315329788427181e-01  4.8923807699417515e-01 4.7838547081220878e-01 1.8523088691904602e-01  4.6682343169678470e-01 2.9211440847859649e-01 1.8156787662446094e-01  4.6015799519843864e-01 1.6173083574624769e-01 2.2056627015342442e-01  4.7214844779087084e-01 9.9725777944643865e-02 3.3377853985555045e-01  5.0823013313591570e-01 9.3919500418269949e-02 5.6854996078205489e-01  5.7386938976133561e-01 1.9712016459157919e-01 8.3815522433562972e-01  6.2810987997552670e-01 4.4136094115020402e-01 7.8041105992611703e-01  6.3155627845639095e-01 6.4329298659677170e-01 5.5426006030377672e-01  6.0481765121253905e-01 7.6015688975482598e-01 3.5606872705633691e-01  6.0569458571819568e-01 7.4517447723212304e-01 3.7569685680223613e-01  5.5480256374773418e-01 2.4816631239693671e-01 7.3963740666842537e-01  5.0140661517243212e-01 2.0606645942083990e-01 4.9359665965903154e-01  5.0857585854197274e-01 4.6374302178155841e-01 3.0442741769970161e-01  4.8122354798552347e-01 4.1626598199730397e-01 1.8136343811165656e-01  4.6953974085684441e-01 3.3453667463075215e-01 1.6780703129488750e-01  4.7613892460700730e-01 2.9148446664899524e-01 2.4096266739258093e-01  4.8969722231084983e-01 1.5078748769335135e-01 4.3035980226780945e-01  5.5890135744457625e-01 1.7534497193352230e-01 7.9541072973287852e-01  6.2834334785655555e-01 4.0193081757293458e-01 8.2073225783877812e-01  6.4495351826088965e-01 5.9148054353893398e-01 6.3371739573259733e-01  6.3595181947039314e-01 6.9977035329327264e-01 4.8318493324488632e-01  6.2833247976344675e-01 7.4108985994679966e-01 4.1718238145680192e-01  6.2505452157768748e-01 7.4106746551376756e-01 4.1344928038638162e-01  6.1354672000410637e-01 7.4965348171378354e-01 3.8519952662322426e-01  5.8723922599645240e-01 7.6276122611047281e-01 3.1654573796253666e-01  5.6464110334398876e-01 7.6391630759481577e-01 2.5551024843372705e-01  5.7847550158813543e-01 7.6519285469180198e-01 2.9213478570499724e-01  6.1409256816824853e-01 7.3399246473308799e-01 4.0721530119041460e-01  6.3879717259491831e-01 6.3715822097613228e-01 5.6750104491586639e-01  6.3114562340849312e-01 4.4381348271821486e-01 7.8403372441412733e-01  5.8134708014659997e-01 2.1600156267980691e-01 8.4818438110028238e-01  5.2030360707466328e-01 1.0169700587940193e-01 6.3510756843212801e-01  4.8128903892825731e-01 8.7355689409740908e-02 4.0076388453360839e-01  4.6311680069948308e-01 1.1375781333506903e-01 2.6746335738701893e-01  4.5805366999034869e-01 1.6879446664826978e-01 2.0299874139791846e-01  4.6115875748686130e-01 2.4525939645570186e-01 1.7567206546975353e-01  4.6842052749010854e-01 3.2776460908671967e-01 1.6691693634549790e-01  4.7568539739048693e-01 3.9339061088916771e-01 1.6615484111886708e-01  4.7987718008320995e-01 4.2648774715918530e-01 1.6743487470899160e-01  4.7918068292743060e-01 4.2051903288786896e-01 1.6740132534945529e-01  4.7405072699069245e-01 3.7862442643151900e-01 1.6689127507390203e-01  4.6623050605499666e-01 3.0662764832069378e-01 1.6771431265211387e-01  4.5968256566771798e-01 2.2529653348180259e-01 1.7827671273854478e-01  4.5687682056200912e-01 1.5186003664882491e-01 2.0513521962145176e-01  4.6237639732892433e-01 1.0879915483031943e-01 2.6423420755971577e-01  4.7520691740483895e-01 8.4676691454407371e-02 3.6061847507817651e-01  4.9594368841400255e-01 8.1827624422497983e-02 4.9420544290933216e-01  5.2618783685333426e-01 1.0413707822020098e-01 6.6141152671773185e-01  5.7284162441001429e-01 1.8912098922594553e-01 8.3027408061058305e-01  6.2304414438028166e-01 3.6491691963446604e-01 8.3365199805891899e-01  6.4173783693298370e-01 4.6561921869567030e-01 7.6457750063934016e-01  6.3885486555807702e-01 4.5614131322710655e-01 7.6941787916442383e-01  6.3896114398448423e-01 4.5423066281953584e-01 7.7403287127139531e-01  6.4304352828846190e-01 4.7491957827615883e-01 7.5629974851007031e-01  6.3315235629103606e-01 4.1281271288978794e-01 8.0933275700274832e-01  5.6579569711638678e-01 1.9671863912452164e-01 8.0848582301096217e-01  5.0347106987487511e-01 1.7007203000738388e-01 5.1497699826844168e-01  5.0025270996838056e-01 3.7479865145272195e-01 3.3304152878792159e-01  4.8395382210198201e-01 3.6323193023052830e-01 2.3920449217441841e-01  4.7498600976884620e-01 2.1315969355036243e-01 2.9225230052016488e-01  5.0856342463643889e-01 1.6294445066588781e-01 5.5322124021019758e-01  5.7666204493477424e-01 3.5198711989523679e-01 7.5278527750501978e-01  5.6539048092826749e-01 6.0761438716530036e-01 4.3405583955653071e-01  4.8795615433744766e-01 4.2039415216973225e-01 2.2911386885299584e-01  4.5890350987252354e-01 1.5516642528912250e-01 2.1640695109143879e-01  4.6371074507393034e-01 1.0093423280760340e-01 2.7522067296285402e-01  4.7203640807866359e-01 8.7796231928771978e-02 3.3432708354215107e-01  4.7416502105082547e-01 8.5476207380245819e-02 3.4933737571609258e-01  4.7655635084229964e-01 8.3647727821498430e-02 3.6561724153211173e-01  4.7898103006432918e-01 8.2269494182197256e-02 3.8183044624646950e-01  4.8142545375939588e-01 8.1266496556874179e-02 3.9791875977439695e-01  4.8388166284091289e-01 8.0603927054238383e-02 4.1383701378940468e-01  4.8634263082729118e-01 8.0236677122505484e-02 4.2955555595948902e-01  4.8879948104104087e-01 8.0131566231278414e-02 4.4502656306053456e-01  4.9124909889535412e-01 8.0262721969561454e-02 4.6023553305466475e-01  4.9368505607578517e-01 8.0605167668526198e-02 4.7514892165792766e-01  4.9610377835695008e-01 8.1142671892240698e-02 4.8974626929886295e-01  4.9849095730517479e-01 8.1847975203464374e-02 5.0395112754554361e-01  5.0087381200870629e-01 8.2721743045267596e-02 5.1792293496771036e-01  5.0323162997712112e-01 8.3743203547863410e-02 5.3154576077068694e-01  5.0554338770734419e-01 8.4891952449892311e-02 5.4470129523460520e-01  5.0785842056875641e-01 8.6185614576925598e-02 5.5767238283652021e-01  5.1013591151892779e-01 8.7593171764064198e-02 5.7023389539684533e-01  5.1234862958157057e-01 8.9088216473094270e-02 5.8223929481752312e-01  5.1454244629689516e-01 9.0695475579273099e-02 5.9394983515214039e-01  5.1670215937076203e-01 9.2392553979800410e-02 6.0528665023853823e-01  5.1882785491854189e-01 9.4178509745764041e-02 6.1625535767202144e-01  5.2091417881207114e-01 9.6041528323972350e-02 6.2683433252095389e-01  5.2296869260884704e-01 9.7982317626690171e-02 6.3706798864952574e-01  5.2499195144320343e-01 9.9998057304325372e-02 6.4696382255458895e-01  5.2695960161922484e-01 1.0205695223027816e-01 6.5641326773334974e-01  5.2889551563709869e-01 1.0417996522142177e-01 6.6553540062918071e-01  5.3080285396022764e-01 1.0636345813604893e-01 6.7435757921639750e-01  5.3264675560616792e-01 1.0856476784578689e-01 6.8272099747982251e-01  5.3446827241629313e-01 1.1082597218348582e-01 6.9082515096841091e-01  5.3624999705605880e-01 1.1312177067332158e-01 6.9859528630789292e-01  5.3798566134524972e-01 1.1543854760090044e-01 7.0601646427315901e-01  5.3968106151380524e-01 1.1777924515958317e-01 7.1312029853857684e-01  5.4133479629614079e-01 1.2013685748787963e-01 7.1991018297100406e-01  5.4295252751633960e-01 1.2251502784636069e-01 7.2641736969934489e-01  5.4454131161466379e-01 1.2492026015931330e-01 7.3267655554154276e-01  5.4606580475746092e-01 1.2729327592524986e-01 7.3855959927341353e-01  5.4754343505370917e-01 1.2965555638599069e-01 7.4414428630339757e-01  5.4901191021815832e-01 1.3206378476683175e-01 7.4957891867696536e-01  5.5042108678758483e-01 1.3443184775632419e-01 7.5468587987108371e-01  5.5177561735248504e-01 1.3676185727070050e-01 7.5949315836130471e-01  5.5309893443845626e-01 1.3908900783029413e-01 7.6409245046040297e-01  5.5437713816462619e-01 1.4138496047918206e-01 7.6844258204238181e-01  5.5562288529081350e-01 1.4366849609665155e-01 7.7259549022813112e-01  5.5680818648877417e-01 1.4588379131119822e-01 7.7646437852256034e-01  5.5796429288777505e-01 1.4808455411352259e-01 7.8016261585190794e-01  5.5907136892624676e-01 1.5022918122163220e-01 7.8363253757023921e-01  5.6014327113223805e-01 1.5234140585533343e-01 7.8692291081387300e-01  5.6118368286998055e-01 1.5442453588778945e-01 7.9005344924847765e-01  5.6216311141761410e-01 1.5641527256116319e-01 7.9294539389762086e-01  5.6309658784260042e-01 1.5834069931229644e-01 7.9564686710137944e-01  5.6400777415267234e-01 1.6024558536741598e-01 7.9823499585358415e-01  5.6486598641200680e-01 1.6206358495188111e-01 8.0062701643875644e-01  5.6567557176097161e-01 1.6379941389224828e-01 8.0284435045149605e-01  5.6645062760584053e-01 1.6548100878211078e-01 8.0492818716208492e-01  5.6718903058284653e-01 1.6709992869250961e-01 8.0688166926936533e-01  5.6787749380823138e-01 1.6862563022936763e-01 8.0867138562320284e-01  5.5480153184529679e-01 1.4215889722311831e-01 7.6986779006995043e-01  6.1561349295697865e-01 3.4334886830267897e-01 8.4155206062784627e-01  5.6962649700607215e-01 1.7256588474869355e-01 8.1308958860007974e-01  4.6554566235990541e-01 9.7891483429908735e-02 2.8841090357445343e-01  5.6798094898960327e-01 1.6885669793587901e-01 8.0893984700291555e-01  5.9808992179461340e-01 7.0774630633910607e-01 4.1087551703581321e-01  5.5805263781830428e-01 1.4824902055149322e-01 7.8043954203506971e-01  5.3132208756390376e-01 1.0695664501498751e-01 6.7676452236247397e-01  5.8616079496133644e-01 3.0159861367000701e-01 8.3163680870420298e-01  6.1764026139431394e-01 3.3998709696658636e-01 8.4343866506287180e-01  5.4190580170199609e-01 1.2096968862192341e-01 7.2222174134479344e-01  4.9145501003031178e-01 4.6875972272793881e-01 2.0433499800836163e-01  4.7613203797832743e-01 9.0909356340615297e-02 3.6228157319683241e-01  5.3157025231218225e-01 1.0727010491422549e-01 6.7785868591170673e-01  4.7230927861992800e-01 3.1558418751219558e-01 1.9859944355670117e-01  5.7222517245289561e-01 1.7860943133222734e-01 8.1930455204588648e-01  4.6245487987525591e-01 1.8462792450513732e-01 2.2191639812667677e-01  6.0400298394893970e-01 7.4207898051194732e-01 3.7851128092338654e-01  5.7338825022720730e-01 1.8138524608384005e-01 8.2195190381538807e-01  5.1768478597936907e-01 9.3206644650633538e-02 6.1037923310903219e-01  4.6510107140512708e-01 1.1133878559581126e-01 2.7874273616359108e-01  5.0181574511595484e-01 8.3109362432276970e-02 5.2339578014689569e-01  5.7326477132196374e-01 1.8108983876974805e-01 8.2167329613609674e-01  6.3424796801191763e-01 7.2217804621390747e-01 4.4997663955615447e-01  4.9934612160714087e-01 8.2154176437036278e-02 5.0901438130745114e-01  4.8971834440602707e-01 8.0161578558865132e-02 4.5075234412164761e-01  5.7220023334126735e-01 1.7855222645870422e-01 8.1924854473289821e-01  5.6145829485192478e-01 1.5497964457280186e-01 7.9087356751889382e-01  4.8965907728064928e-01 3.9988327765172749e-01 2.4455217614638963e-01  4.6359367440538396e-01 1.5091351854856455e-01 2.4920003037694377e-01  5.4888512590224048e-01 1.3184565964056311e-01 7.4911828986285478e-01  5.6563343253092113e-01 1.6370530844273753e-01 8.0272591820889128e-01  4.7817687394795244e-01 2.0085162589412453e-01 3.1856902390337644e-01  5.1332275269966521e-01 8.9788127614948046e-02 5.8748519968358293e-01  4.7996777247959410e-01 8.1830159111166187e-02 3.8834877038671500e-01  5.7074408725095227e-01 1.7514114999782945e-01 8.1581530691591719e-01  5.0732655256408710e-01 5.5682330694555449e-01 2.2109795032345236e-01  4.9684320858256731e-01 8.7692776164508546e-02 4.9656127128194483e-01  5.6506387362556409e-01 1.6248675328616710e-01 8.0117427021576093e-01  5.4945607830319465e-01 1.3280248070977557e-01 7.5120653479699684e-01  5.8276364800325975e-01 4.9408564588386822e-01 6.2516737025213209e-01  6.3029449294111040e-01 4.9315198993867226e-01 7.3133394052787704e-01  5.4118609921441452e-01 1.1991809198459399e-01 7.1930643481931988e-01  5.7285245377243588e-01 1.8010167037998501e-01 8.2074260904595431e-01  5.5378660043924821e-01 1.4031171705695050e-01 7.6644495502900001e-01  4.9919769115972373e-01 4.8942765096445801e-01 2.2695459523047043e-01  5.2756277452082889e-01 6.3847724845595810e-01 2.4799113840198356e-01  5.2280927386668286e-01 9.7822792936813535e-02 6.3630408757437118e-01  4.7857618373489436e-01 1.3428521158042586e-01 3.5947006740452814e-01  5.5831622727867414e-01 1.4876424928308452e-01 7.8127235153354790e-01  5.6770872781949400e-01 1.6824593541075775e-01 8.0823639510019429e-01  5.2582144378645601e-01 1.0085494017312659e-01 6.5097068300165650e-01  5.2716538663010371e-01 1.1790307690702577e-01 6.6636684804277968e-01  5.1116731462995013e-01 8.8275237170385532e-02 5.7585684253654168e-01  5.8093534344020314e-01 2.2749972690033196e-01 8.4099284734058233e-01  5.6266290839931221e-01 1.5743745354128474e-01 7.9439694512550119e-01  5.3689162591