<?xml version="1.0"?>
<VTKFile type="UnstructuredGrid"  version="0.1"  >
<UnstructuredGrid>
<Piece  NumberOfPoints="4940" NumberOfCells="9650">
<Points>
<DataArray  type="Float64"  NumberOfComponents="3"  format="ascii">500 250 0  0 250 0  250 500 0  250 0 0  256.8885856082646 499.9050767557906 0  263.7719401218049 499.6203791065173 0  270.6448364229772 499.1461232471188 0  277.5020553257866 498.4826693209355 0  284.3383895508592 497.6305211460281 0  291.1486476865662 496.5903258312597 0  297.9276581259182 495.3628732847843 0  304.6702729675493 493.9490956196674 0  311.3713719748657 492.3500664368026 0  318.0258664141369 490.5670000199653 0  324.6287029687753 488.6012504015818 0  331.1748675330201 486.4543103455647 0  337.6593890460416 484.1278102064655 0  344.0773432429536 481.6235166997244 0  350.4238564271474 478.9433315480048 0  356.694109139292 476.0892900492477 0  362.88333985546 473.0635595140469 0  368.9868485575419 469.8684376402048 0  375.0000003153078 466.5063507640667 0  380.9182288257928 462.9798520074548 0  386.7370398729688 459.2916193419558 0  392.4520147244077 455.444453565817 0  398.0588135356345 451.4412761437442 0  403.5531785622926 447.285127045646 0  408.9309374414144 442.9791624087773 0  414.1880064015299 438.5266521049243 0  419.3203932989752 433.9309773069245 0  424.324200661095 429.1956279150535 0  429.1956286596235 424.3241998957182 0  433.9309780058756 419.3203925397119 0  438.5266527445345 414.1880056671062 0  442.9791630130591 408.9309367076756 0  447.2851276060475 403.5531778422888 0  451.4412766621026 398.0588128303826 0  455.4444540361634 392.4520140460735 0  459.2916197786263 386.7370392045948 0  462.9798524073514 380.9182281752347 0  466.5063511234856 374.9999996927758 0  469.8684379657123 368.9868479560565 0  473.0635598144817 362.8833392617846 0  476.0892903190255 356.6941085676214 0  478.9433317963513 350.4238558609745 0  481.6235169154735 344.0773427117675 0  484.12781039012 337.6593885555221 0  486.4543105028062 331.1748670749914 0  488.601250531677 324.6287025528375 0  490.5670001317469 318.0258660188321 0  492.3500665291326 311.3713716102628 0  493.949095695951 304.6702726271575 0  495.3628733416623 297.9276578347343 0  496.5903258712341 291.1486474470129 0  497.6305211749058 284.3383893426084 0  498.4826693388848 277.502055163614 0  499.1461232580606 270.6448362909296 0  499.6203791109319 263.7719400417897 0  499.9050767571306 256.8885855596534 0  499.9050767559877 243.1114143988867 0  499.6203791069493 236.2280598860241 0  499.1461232485393 229.3551635941651 0  498.4826693235677 222.4979446979962 0  497.6305211491849 215.6616104719064 0  496.5903258357701 208.8513523404629 0  495.3628732906988 202.0723419043604 0  493.9490956264813 195.3297270628552 0  492.3500664487791 188.6286280724281 0  490.5670000344809 181.9741336371959 0  488.6012504175981 175.3712970824318 0  486.4543103623226 168.8251325157939 0  484.1278102222298 162.3406109960628 0  481.6235167152198 155.9226567951971 0  478.9433315621651 149.5761436051346 0  476.0892900516498 143.3058908657982 0  473.063559513628 137.1166601437124 0  469.8684376406648 131.0131514433083 0  466.5063507675389 124.9999996907064 0  462.9798520124137 119.0817711822745 0  459.2916193464549 113.2629601339176 0  455.4444535642773 107.5479852733717 0  451.4412761528674 101.9411864767781 0  447.2851270583545 96.44682145403524 0  442.9791624165781 91.06906256805769 0  438.5266521117469 85.81199360630404 0  433.9309773156125 80.67960671046254 0  429.1956279150353 75.67579933888632 0  424.3241998888952 70.80437133373906 0  419.3203925223282 66.06902197812161 0  414.1880056411937 61.47334723289828 0  408.9309366751728 57.0208369601728 0  403.5531778009394 52.71487236176898 0  398.058812796452 48.55872331295853 0  392.4520140187753 44.55554594490843 0  386.7370391799677 40.70838020528396 0  380.9182281475119 37.02014757560744 0  374.9999996718656 33.49364886444181 0  368.9868479340393 30.13156202237255 0  362.8833392380029 26.93644017348339 0  356.6941085456942 23.91070967062674 0  350.4238558420009 21.0566681953261 0  344.0773426899492 18.37648307566465 0  337.6593885328982 15.87218960140942 0  331.1748670549786 13.54568949032341 0  324.6287025315056 11.39874946165088 0  318.0258660010876 9.432999863235466 0  311.3713716017894 7.649933468721599 0  304.6702726190621 6.050904302234756 0  297.9276578269805 4.637126656823085 0  291.148647441857 3.409674127905504 0  284.3383893425031 2.369478825079682 0  277.502055159398 1.517330660648639 0  270.6448362875833 0.853876741662134 0  263.7719400401456 0.3796208889774277 0  256.8885855592052 0.09492324285704967 0  243.1114143979462 0.09492324403817065 0  236.2280598850882 0.3796208931023841 0  229.3551635938215 0.8538767514891958 0  222.4979446968584 1.517330676558146 0  215.6616104703111 2.369478851036291 0  208.8513523382973 3.409674164591252 0  202.0723419066374 4.637126708856528 0  195.3297270659513 6.050904372824903 0  188.628628074828 7.649933550613184 0  181.9741336377093 9.432999965373938 0  175.3712970793675 11.39874958336037 0  168.8251325057572 13.54568964112298 0  162.340610986655 15.87218978129263 0  155.9226567874317 18.37648328793418 0  149.576143602509 21.05666843898663 0  143.3058908718157 23.91070994551046 0  137.1166601505524 26.93644048291054 0  131.0131514451933 30.13156235831508 0  124.9999996848412 33.49364923584736 0  119.0817711715717 37.0201479941652 0  113.2629601211624 40.70838066187849 0  107.5479852622251 44.55554644345162 0  101.9411864693332 48.55872385260452 0  96.44682143286516 52.71487295812284 0  91.06906254351222 57.02083760363669 0  85.81199358272519 61.4733479087879 0  80.67960667988106 66.06902271253972 0  75.67579930062769 70.80437212218331 0  70.80437129287643 75.67580015310926 0  66.06902193673014 80.67960752263491 0  61.47334718684866 85.81199441168215 0  57.02083692524275 91.0690633672404 0  52.71487232786438 96.44682224262129 0  48.55872328070024 101.941187247437 0  44.55554591578033 107.5479860232332 0  40.7083801742321 113.2629608675606 0  37.02014754791168 119.0817718975441 0  33.49364883372994 125.000000381329 0  30.13156199866361 131.0131521097709 0  26.9364401549829 137.1166607985551 0  23.91070965524918 143.3058914868915 0  21.05666818346614 149.576144185037 0  18.37648306853811 155.9226573275967 0  15.8721895918909 162.3406114925245 0  13.54568948170046 168.8251329701392 0  11.39874945301878 175.3712974960928 0  9.432999857087736 181.9741340206533 0  7.649933466342702 188.6286284076045 0  6.050904301250966 195.3297273853278 0  4.637126656808988 202.0723421730917 0  3.409674127767772 208.8513525589684 0  2.369478824521138 215.6616106615248 0  1.517330660909465 222.4979448382452 0  0.8538767414496533 229.355163714981 0  0.3796208887135322 236.2280599646376 0  0.09492324266324204 243.1114144478261 0  0.0949232442452228 256.8885856095658 0  0.3796208935834784 263.7719401236316 0  0.8538767530323526 270.6448364248016 0  1.517330679476544 277.5020553295092 0  2.369478854618649 284.3383895555228 0  3.409674170191892 291.1486476952655 0  4.6371267162381 297.9276581311522 0  6.050904381420935 304.6702729724059 0  7.649933562385399 311.3713719716595 0  9.43299997979841 318.0258664133013 0  11.3987495994252 324.6287029719946 0  13.54568965885832 331.174867545904 0  15.87218979367188 337.6593890464085 0  18.37648329843151 344.0773432384132 0  21.05666844777872 350.423856417535 0  23.91070995156048 356.6941091410045 0  26.93644048988043 362.8833398632205 0  30.13156235982007 368.9868485575877 0  33.49364924138357 375.0000003247478 0  37.0201480006036 380.9182288389023 0  40.70838066758398 386.7370398875706 0  44.55554644477201 392.4520147396792 0  48.55872386086904 398.0588135419111 0  52.71487295981296 403.5531785693063 0  57.02083760525949 408.9309374584583 0  61.47334790862246 414.1880064170849 0  66.06902271205095 419.320393319588 0  70.80437211216579 424.3242006890749 0  75.67580013809859 429.195628692521 0  80.6796075127923 433.930978054209 0  85.81199439754931 438.5266528008431 0  91.06906334717917 442.9791630582355 0  96.44682221438322 447.2851276501571 0  101.9411872243843 451.441276702356 0  107.5479859945825 455.4444540643537 0  113.2629608446994 459.2916198108319 0  119.0817718768376 462.9798524393601 0  125.0000003647644 466.5063511567065 0  131.0131521012763 469.8684379967393 0  137.1166607840049 473.0635598376539 0  143.3058914748804 476.0892903390826 0  149.5761441732679 478.9433318113714 0  155.9226573130112 481.6235169255377 0  162.3406114779862 484.1278104026658 0  168.8251329570439 486.4543105138039 0  175.3712974805475 488.601250542119 0  181.9741340135204 490.5670001408953 0  188.6286284005059 492.3500665318597 0  195.3297273788229 493.9490956972913 0  202.0723421640089 495.3628733414168 0  208.8513525529672 496.5903258712308 0  215.6616106544547 497.6305211744985 0  222.4979448327038 498.4826693384772 0  229.3551637102845 499.1461232581612 0  236.2280599621369 499.6203791111485 0  243.1114144470173 499.9050767573145 0  155.2373389820306 474.8197567317462 0  25.36256300907667 153.9152755065208 0  432.3709625126712 412.6214396304305 0  6.013151705810699 246.637913163471 0  246.6379131630491 493.986848294322 0  338.6995838441862 22.68244767887072 0  477.3175523131281 338.6995838660569 0  493.9868482700757 246.6379131399102 0  246.6201155078769 6.218451882810491 0  417.6179310263282 72.7156044707053 0  102.2232990934413 445.0100869616822 0  63.66330858966404 92.20354579482142 0  391.3105220491464 50.73522820883105 0  72.79295043967942 418.0702734974704 0  448.290574428537 108.25674339002 0  402.4604651193511 440.7462829841712 0  97.55317348421397 59.11376320116034 0  136.7376477664901 33.58246472647134 0  363.3288394375288 465.6947312928271 0  44.0678766556007 381.0860953771871 0  469.6905266180034 142.3890690100806 0  22.68244791668644 338.6995843487432 0  338.699584349159 477.317552078365 0  173.389488083762 18.6681884918202 0  483.4809734778481 179.7121987795732 0  13.50237455842738 306.4709525540879 0  305.9825168523021 487.24416992
[...]
<PointData  Vectors="f_12"> 
<DataArray  type="Float64"  Name="f_12"  NumberOfComponents="3" format="ascii">4.7703263770903881e-01 4.0356035253103545e-01 1.6321081017731159e-01  5.4451066823405636e-01 7.2249385576729308e-01 2.2866746269973265e-01  4.6427966416181277e-01 2.8938084039739392e-01 1.6403381176035314e-01  4.8700105965701657e-01 4.4493400024032004e-01 2.0289859886065109e-01  4.6410064377615773e-01 2.8745861353901814e-01 1.6418139308236565e-01  4.6394171849983240e-01 2.8573808972593678e-01 1.6431913377847149e-01  4.6378832034761025e-01 2.8406689479389297e-01 1.6445706903122592e-01  4.6365123195839042e-01 2.8256324084921985e-01 1.6458532937631262e-01  4.6352514011235540e-01 2.8117121425554753e-01 1.6470772794893868e-01  4.6341036189210644e-01 2.7989736691749795e-01 1.6482226949365605e-01  4.6330639358514786e-01 2.7873736964951018e-01 1.6492907815931515e-01  4.6321184795286519e-01 2.7767745019315498e-01 1.6502868789082040e-01  4.6312756009391232e-01 2.7672845501761861e-01 1.6511942771133520e-01  4.6305401088944126e-01 2.7589681404984878e-01 1.6520045872334643e-01  4.6299887921370514e-01 2.7527028756642546e-01 1.6526280612454353e-01  4.6293628837557910e-01 2.7455975006073768e-01 1.6533301999416875e-01  4.6290558282700545e-01 2.7420807868052127e-01 1.6536915322871865e-01  4.6287043845984444e-01 2.7380728000884014e-01 1.6540951304998497e-01  4.6284788920096953e-01 2.7354935087933113e-01 1.6543585337925121e-01  4.6283320471401401e-01 2.7338174267155546e-01 1.6545284779692215e-01  4.6282487701532499e-01 2.7328825645490473e-01 1.6546144594995060e-01  4.6283353109499525e-01 2.7338734129333225e-01 1.6545144400263820e-01  4.6285250684791629e-01 2.7360427043779684e-01 1.6542962031484801e-01  4.6287128758008461e-01 2.7382124618629056e-01 1.6540649015884412e-01  4.6290046728669165e-01 2.7415668933312104e-01 1.6537160956482755e-01  4.6294417005801208e-01 2.7465576997928332e-01 1.6532115596886279e-01  4.6300428872946275e-01 2.7533942486279123e-01 1.6525323749163631e-01  4.6306339584866335e-01 2.7601176839129460e-01 1.6518613512402458e-01  4.6313135173538761e-01 2.7678219161929896e-01 1.6511022471761894e-01  4.6322010672098934e-01 2.7778210295521960e-01 1.6501442726926466e-01  4.6331126556835317e-01 2.7880586527142670e-01 1.6491752425453249e-01  4.6341577941396400e-01 2.7997300068183528e-01 1.6480965005303083e-01  4.6353244553387501e-01 2.8126872024886895e-01 1.6469287585316544e-01  4.6365520199168336e-01 2.8262565564445213e-01 1.6457292050798764e-01  4.6380068051998380e-01 2.8422143579011921e-01 1.6443684979238063e-01  4.6395626307477383e-01 2.8591673196281658e-01 1.6429699752611296e-01  4.6411545732587067e-01 2.8764209859409712e-01 1.6415786411228173e-01  4.6429809172512931e-01 2.8960443809538922e-01 1.6400661637439748e-01  4.6450636066431367e-01 2.9182091631375967e-01 1.6384475812594004e-01  4.6472274850794920e-01 2.9410591649720047e-01 1.6368476921559999e-01  4.6494552500805508e-01 2.9644013221169213e-01 1.6352824881240521e-01  4.6519568944007555e-01 2.9903475261601603e-01 1.6336517217165467e-01  4.6547504359990544e-01 3.0190351696278878e-01 1.6319630046773964e-01  4.6576890629619655e-01 3.0489083848412546e-01 1.6303246265668467e-01  4.6609078842157037e-01 3.0812606294375028e-01 1.6287003686359242e-01  4.6643820658645491e-01 3.1158064461055107e-01 1.6271096429334814e-01  4.6681065624183993e-01 3.1524167593360958e-01 1.6255914185811271e-01  4.6720771952391293e-01 3.1909853106910430e-01 1.6241783483147723e-01  4.6765529273669709e-01 3.2338771459653920e-01 1.6228338478221954e-01  4.6813190553583794e-01 3.2789832728575374e-01 1.6216434181515260e-01  4.6864501981459117e-01 3.3268566456291304e-01 1.6206458541059016e-01  4.6920292620999687e-01 3.3782171978712622e-01 1.6198440195856140e-01  4.6980117812084787e-01 3.4324776794152140e-01 1.6193046792721175e-01  4.7046510127150692e-01 3.4917692986609988e-01 1.6190772265249084e-01  4.7118080479647517e-01 3.5546862737657237e-01 1.6192052715526903e-01  4.7194863245544061e-01 3.6210942942651569e-01 1.6197456321503378e-01  4.7279386716052402e-01 3.6929344607437981e-01 1.6207956003903246e-01  4.7370990741391000e-01 3.7694021529128147e-01 1.6224349026534063e-01  4.7469829484451920e-01 3.8505121967718797e-01 1.6245964065764124e-01  4.7573764821108083e-01 3.9343490034101475e-01 1.6274410451865542e-01  4.7829471473027235e-01 4.1331141937859350e-01 1.6366609984004310e-01  4.7969874388556971e-01 4.2387878998765488e-01 1.6427256798855211e-01  4.8121446072385399e-01 4.3501250186768303e-01 1.6500659105600413e-01  4.8291448293308115e-01 4.4719095450636787e-01 1.6589723708786569e-01  4.8476334675416005e-01 4.6006764828039121e-01 1.6696553793756205e-01  4.8678327885599804e-01 4.7373731146996834e-01 1.6821189527888461e-01  4.8899378021639417e-01 4.8820857149711355e-01 1.6969274834578299e-01  4.9142057643729370e-01 5.0355649399306879e-01 1.7142338800229973e-01  4.9406632338369716e-01 5.1966653873609370e-01 1.7342985334931335e-01  4.9694611199018701e-01 5.3648984576613790e-01 1.7574543186625835e-01  5.0014794770455873e-01 5.5433525838364606e-01 1.7846357462651147e-01  5.0361141735421322e-01 5.7269026194589279e-01 1.8156938400438152e-01  5.0739739035654019e-01 5.9163625339973602e-01 1.8513140074016118e-01  5.1157675674746783e-01 6.1124667612215811e-01 1.8927755265022470e-01  5.1614871513141702e-01 6.3117534413456766e-01 1.9403608116533774e-01  5.2112802911337985e-01 6.5113258884893599e-01 1.9949832094926323e-01  5.2654753628544937e-01 6.7086368460285928e-01 2.0574284993180544e-01  5.3244076995955647e-01 6.9004230139664113e-01 2.1292038121379295e-01  5.3885442645488557e-01 7.0833924054068420e-01 2.2119453913695056e-01  5.4579222624239665e-01 7.2527551841607174e-01 2.3068257092276551e-01  5.5315624453156054e-01 7.4022127190774456e-01 2.4140421901133630e-01  5.6121752180137918e-01 7.5307115805720903e-01 2.5406585492381806e-01  5.6977189640571591e-01 7.6301875022665699e-01 2.6863041266431975e-01  5.7884766379265806e-01 7.6971595676255711e-01 2.8552888233467005e-01  5.8835356203071620e-01 7.7259001119242643e-01 3.0517088796419972e-01  5.9818869386973517e-01 7.7119000663380577e-01 3.2810399877456875e-01  6.0822883088284019e-01 7.6500380550449898e-01 3.5508061453459294e-01  6.1841815684667012e-01 7.5346498919880311e-01 3.8717674502764343e-01  6.2938795940354042e-01 7.3349513211811468e-01 4.2955854405422700e-01  6.4115241959078717e-01 6.9006985843047497e-01 5.0131145678416689e-01  6.4625553836700056e-01 5.8711306611580671e-01 6.3924101080499895e-01  6.2106708032696667e-01 3.6916740905780920e-01 8.3682677077241063e-01  5.4644829022176211e-01 1.4080992377956747e-01 7.5783343683665727e-01  4.8416470090041475e-01 9.6534831904091997e-02 4.1709233035769749e-01  4.6327848278439820e-01 1.6091657644323409e-01 2.4189263769413924e-01  4.7111190466133385e-01 3.1787471324667022e-01 1.9430304842178184e-01  4.9954492907892878e-01 5.3392955866766212e-01 2.0181036905035474e-01  5.3842649390201136e-01 6.9162505473594904e-01 2.4472641169727921e-01  5.7424871808573030e-01 7.5289367352069825e-01 2.9760085241760642e-01  6.0067591933868081e-01 7.5573365058709829e-01 3.5353100270562576e-01  6.1785078663139081e-01 7.3175339418892027e-01 4.1448862371918133e-01  6.2468617199433918e-01 7.1882853091371879e-01 4.4137970902520485e-01  6.2485212389450995e-01 7.1628236369817277e-01 4.4591522178664394e-01  6.1709809530300574e-01 7.3226607985777215e-01 4.1330521147013977e-01  5.9771423251059386e-01 7.5053569564404532e-01 3.5480639512851264e-01  5.6420954316686689e-01 7.4026634478626974e-01 2.8329173703696559e-01  5.2135509598234842e-01 6.3980643364046119e-01 2.2041192812726484e-01  4.8326807196434990e-01 4.3454135953633166e-01 1.8375422996555021e-01  4.6253041787088284e-01 2.4491970184326081e-01 1.8442502954900422e-01  4.5930941642622469e-01 1.4122119605173034e-01 2.2576117874760979e-01  4.6774959757682733e-01 9.5194654932230269e-02 3.0580478289642649e-01  4.8441842969260007e-01 8.2920581182070768e-02 4.2170577456547426e-01  5.1207717985138823e-01 9.7608848866208686e-02 5.9126035566740698e-01  5.6470464747469873e-01 2.0301035741844359e-01 8.1018225587686843e-01  6.0470381045658594e-01 4.8176558208369646e-01 6.9876356701856945e-01  5.6262759913297578e-01 6.5472430878903720e-01 3.7342322105035763e-01  4.6080895914708686e-01 2.2763611427792316e-01 1.8263685248143133e-01  4.5480965181751770e-01 1.4072582705650233e-01 1.9624801772758471e-01  4.5751139293152748e-01 1.4029118582558275e-01 2.1275436946315504e-01  4.5806918906982891e-01 1.3531314194917748e-01 2.1902864466303484e-01  4.5839735844374785e-01 1.3084299104784616e-01 2.2364689551309680e-01  4.5867622172742673e-01 1.2820180156992048e-01 2.2687685777011532e-01  4.5879932399799084e-01 1.2706244161588306e-01 2.2829117943160454e-01  4.5877984173237252e-01 1.2723565096833964e-01 2.2807185019974197e-01  4.5861319266198391e-01 1.2878493422480630e-01 2.2615461921560234e-01  4.5835037366399572e-01 1.3137904051597948e-01 2.2304827692667806e-01  4.5794212189616934e-01 1.3635322478509704e-01 2.1769127407984565e-01  4.5754008569997046e-01 1.4340219687649497e-01 2.1115072794729720e-01  4.5692052340873746e-01 1.5386012649725594e-01 2.0172362779708500e-01  4.5695153288513946e-01 1.8189079027057606e-01 1.8555894173188764e-01  4.6520002316800652e-01 2.8864204463214432e-01 1.7523664328389105e-01  5.1196801077372112e-01 5.7481687815950289e-01 2.3504222367194041e-01  5.8766181770004977e-01 6.5535990652465448e-01 4.5041407139976242e-01  6.0670426677845779e-01 4.2176012629893711e-01 7.6697280788172106e-01  5.5265372890392295e-01 1.6610382421774603e-01 7.7813638401046636e-01  5.0254360033222722e-01 9.0403467765359902e-02 5.3737351797542077e-01  4.7966432752814220e-01 8.4258814225774359e-02 3.9044985660224146e-01  4.6756625292905690e-01 9.4312998693965353e-02 3.0527886032018819e-01  4.6013666415977744e-01 1.1868752820600502e-01 2.4386237325339719e-01  4.5734873135231274e-01 1.6524155366262233e-01 1.9969669730289558e-01  4.6089113183825470e-01 2.4320649162180455e-01 1.7486614098574052e-01  4.7149516114313628e-01 3.5420259612957544e-01 1.6838853790028904e-01  4.8696874672916496e-01 4.7458248620735799e-01 1.7486518248208299e-01  5.0202734493802392e-01 5.6642063430154599e-01 1.8633420463315029e-01  5.1199595660178410e-01 6.1447741860223137e-01 1.9619249760527624e-01  5.1412800814997162e-01 6.2259865025424099e-01 1.9913283743525168e-01  5.0836801558730649e-01 5.9465142620387712e-01 1.9488466489611248e-01  4.9557182160166935e-01 5.2630805361308575e-01 1.8349299783710463e-01  4.7995295103650620e-01 4.2095858295319938e-01 1.7476942962858691e-01  4.6470477210923244e-01 2.8974200920011400e-01 1.7283910683740619e-01  4.5880379367956342e-01 1.7964837571344411e-01 2.0126570055455256e-01  4.6462685851518720e-01 1.1208369525793320e-01 2.7934481062461719e-01  4.8962083065428053e-01 8.7876821704213320e-02 4.5615454810426181e-01  5.4282891538199962e-01 1.2940191069777060e-01 7.4097286259297168e-01  6.0881065484523622e-01 3.0483281484130681e-01 8.6033966495995395e-01  6.4418311120224736e-01 5.1781024202471382e-01 7.1446184912736832e-01  6.4847518665156023e-01 6.3998275452726050e-01 5.7400916064847929e-01  6.4140201581920520e-01 6.9655482562363003e-01 4.9366136752629980e-01  6.3327305325053251e-01 7.2525426695661399e-01 4.4550141608359556e-01  6.2609410771015395e-01 7.4149153807520873e-01 4.1429651931360184e-01  6.1927102817507118e-01 7.5315074147091965e-01 3.8879914770499835e-01  6.1237122703082880e-01 7.6193413162938251e-01 3.6614527114514522e-01  6.0527023214355569e-01 7.6815484059657468e-01 3.4557183589781282e-01  5.9846393262547137e-01 7.7167251313628649e-01 3.2794834990655425e-01  5.9159945844085293e-01 7.7308016703740212e-01 3.1175961629156501e-01  5.8493036908424756e-01 7.7243194054565789e-01 2.9725764476106120e-01  5.7831547291984364e-01 7.6974134898465973e-01 2.8401955530664885e-01  5.7200230618513070e-01 7.6532773141753463e-01 2.7220047276077741e-01  5.6599157699130620e-01 7.5931434869945802e-01 2.6167946631005240e-01  5.6022411945344375e-01 7.5185333702706503e-01 2.5215005402054869e-01  5.5470766679615791e-01 7.4309371007912028e-01 2.4352787984305471e-01  5.4947249576514412e-01 7.3325186880579540e-01 2.3572385767247286e-01  5.3983173763045700e-01 7.1102040956038326e-01 2.2229608140489773e-01  5.3542700511661190e-01 6.9897797001344597e-01 2.1654000240874588e-01  5.3124165902441534e-01 6.8639979126077177e-01 2.1128751963641385e-01  5.2731386677367409e-01 6.7354495025050454e-01 2.0652945672488143e-01  5.2361842272372217e-01 6.6049959716797724e-01 2.0221340310314656e-01  5.2014285050038933e-01 6.4736643894312240e-01 1.9829238272130531e-01  5.1687283120498206e-01 6.3422150207722527e-01 1.9472717135958634e-01  5.1380195180742139e-01 6.2116610908674208e-01 1.9148622977412552e-01  5.1091352742748852e-01 6.0824337290810915e-01 1.8853695791864786e-01  5.0819699459930978e-01 5.9550668993346256e-01 1.8585133168398499e-01  5.0564154376981263e-01 5.8299699582055409e-01 1.8340985968660414e-01  5.0325064067110592e-01 5.7082471355475251e-01 1.8119388861807448e-01  5.0097516755439686e-01 5.5880594481128498e-01 1.7915456682719560e-01  4.9882999839711972e-01 5.4708659889747868e-01 1.7729704608115188e-01  4.9682579298336266e-01 5.3578091464937427e-01 1.7562020616128413e-01  4.9489889636759821e-01 5.2458317380859010e-01 1.7406603160234957e-01  4.9308562772954012e-01 5.1374727275932441e-01 1.7265764559255276e-01  4.9140393674575550e-01 5.0342667244543582e-01 1.7139688131722527e-01  4.8979862199910085e-01 4.9332776979722925e-01 1.7024877015594853e-01  4.8827862782794762e-01 4.8354388433095480e-01 1.6919859470923235e-01  4.8683796204488722e-01 4.7406072474864597e-01 1.6824969421535191e-01  4.8547475976531568e-01 4.6489325247213964e-01 1.6739378801849902e-01  4.8417857560545308e-01 4.5599945342882886e-01 1.6661833831554790e-01  4.8294455516436724e-01 4.4736429854341475e-01 1.6591960761895905e-01  4.8178673189565629e-01 4.3910984786235269e-01 1.6530155951202563e-01  4.8068263464603284e-01 4.3109446353068887e-01 1.6474742392249037e-01  4.7962733997602025e-01 4.2330256330895527e-01 1.6425256255471904e-01  4.7864111963230860e-01 4.1589417057320222e-01 1.6382406061532848e-01  4.7769302685442178e-01 4.0865563402931759e-01 1.6344582689265127e-01  4.7679243540294147e-01 4.0167225754382208e-01 1.6311583480859343e-01  4.7594042903885220e-01 3.9496244900914129e-01 1.6283569232749043e-01  4.7513062551953372e-01 3.8848855267370286e-01 1.6259884562558674e-01  4.7436176147702508e-01 3.8225166567852875e-01 1.6240271046476951e-01  4.7362851464957761e-01 3.7621763298932343e-01 1.6224412165021435e-01  4.7292542186910458e-01 3.7035070940657050e-01 1.6211890331181958e-01  4.7226981674279095e-01 3.6480436456740262e-01 1.6202859283261767e-01  4.7164975784422863e-01 3.5948692080498390e-01 1.6196891131527322e-01  4.7104503529573016e-01 3.5423406328982687e-01 1.6193451714007487e-01  4.7047966557602339e-01 3.4925797106132456e-01 1.6192688076151970e-01  4.6994930258929551e-01 3.4452883448445348e-01 1.6194339298506172e-01  4.6944140785987387e-01 3.3994475446682371e-01 1.6198031354461082e-01  4.6896148038930435e-01 3.3556043070564012e-01 1.6203575716800037e-01  4.6850245773154525e-01 3.3131531685744409e-01 1.6211011864277797e-01  4.6807605222659376e-01 3.2732659851248469e-01 1.6219697089442547e-01  4.6766703321370168e-01 3.2345476876820739e-01 1.6230004808395634e-01  4.6728321034379372e-01 3.1978040377581202e-01 1.6241384996473457e-01  4.6691801065646188e-01 3.1624639088381307e-01 1.6253781984408483e-01  4.6656922966852421e-01 3.1283475475334016e-01 1.6267220370542360e-01  4.6624779151720630e-01 3.0965401965275313e-01 1.6281311364284040e-01  4.6594664485465276e-01 3.0664409637645501e-01 1.6295769064668256e-01  4.6565605685605532e-01 3.0371158629002154e-01 1.6310986736184524e-01  4.6538734733117987e-01 3.0097217499983941e-01 1.6326321729152646e-01  4.6513801326441634e-01 2.9840505452062044e-01 1.6341744347791570e-01  4.6490217527387440e-01 2.9595569345392536e-01 1.6357259217127615e-01  4.6468022388242836e-01 2.9363038284246157e-01 1.6372833930209643e-01  4.6447645226178041e-01 2.9147686329155931e-01 1.6387981225459144e-01  4.6882426181837233e-01 3.3428952130127737e-01 1.6206006721940602e-01  6.4033472798058821e-01 6.9805887595349014e-01 4.9011067478450487e-01  4.6381803008015732e-01 2.8440213889823490e-01 1.6442621161418822e-01  5.4756518017806144e-01 7.2923951679396726e-01 2.3300675541857443e-01  4.6446074415190913e-01 2.9130328625570617e-01 1.6389585782661395e-01  6.2566686780954073e-01 6.1421017724827864e-01 5.8363703410747758e-01  4.6715128030044900e-01 3.1853599932353255e-01 1.6244661819807024e-01  4.7787499829986602e-01 4.1009559097658826e-01 1.6351121582432598e-01  4.6945330083049408e-01 3.1922562779609781e-01 1.8300441980621796e-01  6.3718698508606242e-01 7.0255502517639301e-01 4.8060706562421762e-01  4.7412260948201068e-01 3.8028582864017818e-01 1.6235207412466859e-01  5.3465341740785355e-01 6.4610195430213180e-01 2.7021723074158827e-01  4.6745397511419445e-01 1.6060724169376356e-01 2.7243802307491399e-01  4.7924609446039729e-01 4.2044467716894013e-01 1.6408843117132779e-01  5.6638720157666300e-01 7.5947217994225191e-01 2.6279819944684452e-01  4.6317111039224795e-01 2.7722068351622242e-01 1.6507269873122646e-01  4.6512809364045415e-01 2.6099025090143496e-01 1.9110724101205528e-01  6.0449739287470794e-01 5.0979577066820847e-01 6.6806867865934505e-01  4.6291009401697975e-01 2.7425573246341806e-01 1.6536664094122883e-01  4.8765112724875398e-01 4.7942825091466751e-01 1.6878641220121254e-01  5.2442561091171469e-01 6.6333560277745995e-01 2.0329031150989504e-01  5.0016981912999836e-01 5.5445205598610359e-01 1.7845952517269875e-01  4.6295955168116332e-01 2.7481659622215565e-01 1.6531116636519266e-01  4.5755973893480639e-01 1.4254441085372399e-01 2.1175605413274048e-01  4.9929815057128318e-01 5.4967070710472932e-01 1.7775028365902198e-01  5.1282434103900709e-01 6.1683418466173201e-01 1.9049711403735697e-01  4.6326004533391102e-01 2.7821007261332364e-01 1.6498242202613944e-01  4.6649757897690147e-01 3.1212140450475423e-01 1.6270687469478007e-01  5.9587339112953031e-01 7.7233528404899998e-01 3.2181914083430785e-01  4.6286677596702308e-01 2.2480905660798389e-01 1.9882781432929089e-01  4.7030845915678349e-01 3.4777200880458170e-01 1.6191918889617724e-01  4.6488824957410402e-01 2.9582945311609782e-01 1.6357469031663566e-01  4.5862211922011498e-01 1.2884951053148125e-01 2.2616365232897356e-01  4.8836961071782936e-01 4.8414442017755971e-01 1.6928370611556795e-01  5.2591469993994400e-01 6.6869168977838811e-01 2.0490038417227660e-01  4.6366550089818026e-01 2.8271202374691878e-01 1.6457648554764867e-01  5.7617751670081574e-01 7.1628976496764785e-01 3.4459831406316682e-01  4.9685604671503464e-01 1.0058103833230028e-01 4.9505184271304958e-01  4.6534233389215146e-01 3.0050272648837917e-01 1.6329484959671384e-01  4.7088887817941355e-01 3.5286135481858005e-01 1.6193373599338728e-01  5.6921141064149716e-01 7.6267994761767210e-01 2.6731510532535502e-01  5.2002031536893301e-01 1.1322376469762595e-01 6.3661786316171121e-01  4.7336038433091171e-01 3.7401884288592047e-01 1.6218743610917610e-01  4.6303257248997443e-01 2.7564876967020957e-01 1.6522805359858037e-01  4.6856744187267529e-01 3.3195000701926003e-01 1.6208802117334029e-01  4.5781211976738223e-01 1.3919799593940937e-01 2.1525325552383920e-01  5.6597825997791584e-01 7.0803859024070392e-01 3.2493130952200083e-01  4.8244725787315151e-01 4.4385550010969832e-01 1.6566133147204345e-01  6.0461122963659031e-01 7.6764392173396978e-01 3.4510404018215368e-01  4.6756494392638720e-01 3.2247303081596029e-01 1.6233323079928635e-01  4.6432818899797340e-01 2.8991346438412430e-01 1.6399005929936800e-01  4.8249737450945940e-01 4.4418434277354263e-01 1.6568342085977469e-01  4.6802259128312412e-01 1.0103563123056175e-01 3.0448086675346864e-01  4.9234467030444795e-01 5.0922463450049438e-01 1.7210464888031979e-01  6.1688446010014031e-01 7.5618584979610626e-01 3.8107425849503374e-01  4.6574003883158260e-01 3.0458667099785347e-01 1.6305506776638812e-01  4.7650458352