<?xml version="1.0"?>
<VTKFile type="UnstructuredGrid"  version="0.1"  >
<UnstructuredGrid>
<Piece  NumberOfPoints="4940" NumberOfCells="9650">
<Points>
<DataArray  type="Float64"  NumberOfComponents="3"  format="ascii">500 250 0  0 250 0  250 500 0  250 0 0  256.8885856082646 499.9050767557906 0  263.7719401218049 499.6203791065173 0  270.6448364229772 499.1461232471188 0  277.5020553257866 498.4826693209355 0  284.3383895508592 497.6305211460281 0  291.1486476865662 496.5903258312597 0  297.9276581259182 495.3628732847843 0  304.6702729675493 493.9490956196674 0  311.3713719748657 492.3500664368026 0  318.0258664141369 490.5670000199653 0  324.6287029687753 488.6012504015818 0  331.1748675330201 486.4543103455647 0  337.6593890460416 484.1278102064655 0  344.0773432429536 481.6235166997244 0  350.4238564271474 478.9433315480048 0  356.694109139292 476.0892900492477 0  362.88333985546 473.0635595140469 0  368.9868485575419 469.8684376402048 0  375.0000003153078 466.5063507640667 0  380.9182288257928 462.9798520074548 0  386.7370398729688 459.2916193419558 0  392.4520147244077 455.444453565817 0  398.0588135356345 451.4412761437442 0  403.5531785622926 447.285127045646 0  408.9309374414144 442.9791624087773 0  414.1880064015299 438.5266521049243 0  419.3203932989752 433.9309773069245 0  424.324200661095 429.1956279150535 0  429.1956286596235 424.3241998957182 0  433.9309780058756 419.3203925397119 0  438.5266527445345 414.1880056671062 0  442.9791630130591 408.9309367076756 0  447.2851276060475 403.5531778422888 0  451.4412766621026 398.0588128303826 0  455.4444540361634 392.4520140460735 0  459.2916197786263 386.7370392045948 0  462.9798524073514 380.9182281752347 0  466.5063511234856 374.9999996927758 0  469.8684379657123 368.9868479560565 0  473.0635598144817 362.8833392617846 0  476.0892903190255 356.6941085676214 0  478.9433317963513 350.4238558609745 0  481.6235169154735 344.0773427117675 0  484.12781039012 337.6593885555221 0  486.4543105028062 331.1748670749914 0  488.601250531677 324.6287025528375 0  490.5670001317469 318.0258660188321 0  492.3500665291326 311.3713716102628 0  493.949095695951 304.6702726271575 0  495.3628733416623 297.9276578347343 0  496.5903258712341 291.1486474470129 0  497.6305211749058 284.3383893426084 0  498.4826693388848 277.502055163614 0  499.1461232580606 270.6448362909296 0  499.6203791109319 263.7719400417897 0  499.9050767571306 256.8885855596534 0  499.9050767559877 243.1114143988867 0  499.6203791069493 236.2280598860241 0  499.1461232485393 229.3551635941651 0  498.4826693235677 222.4979446979962 0  497.6305211491849 215.6616104719064 0  496.5903258357701 208.8513523404629 0  495.3628732906988 202.0723419043604 0  493.9490956264813 195.3297270628552 0  492.3500664487791 188.6286280724281 0  490.5670000344809 181.9741336371959 0  488.6012504175981 175.3712970824318 0  486.4543103623226 168.8251325157939 0  484.1278102222298 162.3406109960628 0  481.6235167152198 155.9226567951971 0  478.9433315621651 149.5761436051346 0  476.0892900516498 143.3058908657982 0  473.063559513628 137.1166601437124 0  469.8684376406648 131.0131514433083 0  466.5063507675389 124.9999996907064 0  462.9798520124137 119.0817711822745 0  459.2916193464549 113.2629601339176 0  455.4444535642773 107.5479852733717 0  451.4412761528674 101.9411864767781 0  447.2851270583545 96.44682145403524 0  442.9791624165781 91.06906256805769 0  438.5266521117469 85.81199360630404 0  433.9309773156125 80.67960671046254 0  429.1956279150353 75.67579933888632 0  424.3241998888952 70.80437133373906 0  419.3203925223282 66.06902197812161 0  414.1880056411937 61.47334723289828 0  408.9309366751728 57.0208369601728 0  403.5531778009394 52.71487236176898 0  398.058812796452 48.55872331295853 0  392.4520140187753 44.55554594490843 0  386.7370391799677 40.70838020528396 0  380.9182281475119 37.02014757560744 0  374.9999996718656 33.49364886444181 0  368.9868479340393 30.13156202237255 0  362.8833392380029 26.93644017348339 0  356.6941085456942 23.91070967062674 0  350.4238558420009 21.0566681953261 0  344.0773426899492 18.37648307566465 0  337.6593885328982 15.87218960140942 0  331.1748670549786 13.54568949032341 0  324.6287025315056 11.39874946165088 0  318.0258660010876 9.432999863235466 0  311.3713716017894 7.649933468721599 0  304.6702726190621 6.050904302234756 0  297.9276578269805 4.637126656823085 0  291.148647441857 3.409674127905504 0  284.3383893425031 2.369478825079682 0  277.502055159398 1.517330660648639 0  270.6448362875833 0.853876741662134 0  263.7719400401456 0.3796208889774277 0  256.8885855592052 0.09492324285704967 0  243.1114143979462 0.09492324403817065 0  236.2280598850882 0.3796208931023841 0  229.3551635938215 0.8538767514891958 0  222.4979446968584 1.517330676558146 0  215.6616104703111 2.369478851036291 0  208.8513523382973 3.409674164591252 0  202.0723419066374 4.637126708856528 0  195.3297270659513 6.050904372824903 0  188.628628074828 7.649933550613184 0  181.9741336377093 9.432999965373938 0  175.3712970793675 11.39874958336037 0  168.8251325057572 13.54568964112298 0  162.340610986655 15.87218978129263 0  155.9226567874317 18.37648328793418 0  149.576143602509 21.05666843898663 0  143.3058908718157 23.91070994551046 0  137.1166601505524 26.93644048291054 0  131.0131514451933 30.13156235831508 0  124.9999996848412 33.49364923584736 0  119.0817711715717 37.0201479941652 0  113.2629601211624 40.70838066187849 0  107.5479852622251 44.55554644345162 0  101.9411864693332 48.55872385260452 0  96.44682143286516 52.71487295812284 0  91.06906254351222 57.02083760363669 0  85.81199358272519 61.4733479087879 0  80.67960667988106 66.06902271253972 0  75.67579930062769 70.80437212218331 0  70.80437129287643 75.67580015310926 0  66.06902193673014 80.67960752263491 0  61.47334718684866 85.81199441168215 0  57.02083692524275 91.0690633672404 0  52.71487232786438 96.44682224262129 0  48.55872328070024 101.941187247437 0  44.55554591578033 107.5479860232332 0  40.7083801742321 113.2629608675606 0  37.02014754791168 119.0817718975441 0  33.49364883372994 125.000000381329 0  30.13156199866361 131.0131521097709 0  26.9364401549829 137.1166607985551 0  23.91070965524918 143.3058914868915 0  21.05666818346614 149.576144185037 0  18.37648306853811 155.9226573275967 0  15.8721895918909 162.3406114925245 0  13.54568948170046 168.8251329701392 0  11.39874945301878 175.3712974960928 0  9.432999857087736 181.9741340206533 0  7.649933466342702 188.6286284076045 0  6.050904301250966 195.3297273853278 0  4.637126656808988 202.0723421730917 0  3.409674127767772 208.8513525589684 0  2.369478824521138 215.6616106615248 0  1.517330660909465 222.4979448382452 0  0.8538767414496533 229.355163714981 0  0.3796208887135322 236.2280599646376 0  0.09492324266324204 243.1114144478261 0  0.0949232442452228 256.8885856095658 0  0.3796208935834784 263.7719401236316 0  0.8538767530323526 270.6448364248016 0  1.517330679476544 277.5020553295092 0  2.369478854618649 284.3383895555228 0  3.409674170191892 291.1486476952655 0  4.6371267162381 297.9276581311522 0  6.050904381420935 304.6702729724059 0  7.649933562385399 311.3713719716595 0  9.43299997979841 318.0258664133013 0  11.3987495994252 324.6287029719946 0  13.54568965885832 331.174867545904 0  15.87218979367188 337.6593890464085 0  18.37648329843151 344.0773432384132 0  21.05666844777872 350.423856417535 0  23.91070995156048 356.6941091410045 0  26.93644048988043 362.8833398632205 0  30.13156235982007 368.9868485575877 0  33.49364924138357 375.0000003247478 0  37.0201480006036 380.9182288389023 0  40.70838066758398 386.7370398875706 0  44.55554644477201 392.4520147396792 0  48.55872386086904 398.0588135419111 0  52.71487295981296 403.5531785693063 0  57.02083760525949 408.9309374584583 0  61.47334790862246 414.1880064170849 0  66.06902271205095 419.320393319588 0  70.80437211216579 424.3242006890749 0  75.67580013809859 429.195628692521 0  80.6796075127923 433.930978054209 0  85.81199439754931 438.5266528008431 0  91.06906334717917 442.9791630582355 0  96.44682221438322 447.2851276501571 0  101.9411872243843 451.441276702356 0  107.5479859945825 455.4444540643537 0  113.2629608446994 459.2916198108319 0  119.0817718768376 462.9798524393601 0  125.0000003647644 466.5063511567065 0  131.0131521012763 469.8684379967393 0  137.1166607840049 473.0635598376539 0  143.3058914748804 476.0892903390826 0  149.5761441732679 478.9433318113714 0  155.9226573130112 481.6235169255377 0  162.3406114779862 484.1278104026658 0  168.8251329570439 486.4543105138039 0  175.3712974805475 488.601250542119 0  181.9741340135204 490.5670001408953 0  188.6286284005059 492.3500665318597 0  195.3297273788229 493.9490956972913 0  202.0723421640089 495.3628733414168 0  208.8513525529672 496.5903258712308 0  215.6616106544547 497.6305211744985 0  222.4979448327038 498.4826693384772 0  229.3551637102845 499.1461232581612 0  236.2280599621369 499.6203791111485 0  243.1114144470173 499.9050767573145 0  155.2373389820306 474.8197567317462 0  25.36256300907667 153.9152755065208 0  432.3709625126712 412.6214396304305 0  6.013151705810699 246.637913163471 0  246.6379131630491 493.986848294322 0  338.6995838441862 22.68244767887072 0  477.3175523131281 338.6995838660569 0  493.9868482700757 246.6379131399102 0  246.6201155078769 6.218451882810491 0  417.6179310263282 72.7156044707053 0  102.2232990934413 445.0100869616822 0  63.66330858966404 92.20354579482142 0  391.3105220491464 50.73522820883105 0  72.79295043967942 418.0702734974704 0  448.290574428537 108.25674339002 0  402.4604651193511 440.7462829841712 0  97.55317348421397 59.11376320116034 0  136.7376477664901 33.58246472647134 0  363.3288394375288 465.6947312928271 0  44.0678766556007 381.0860953771871 0  469.6905266180034 142.3890690100806 0  22.68244791668644 338.6995843487432 0  338.699584349159 477.317552078365 0  173.389488083762 18.6681884918202 0  483.4809734778481 179.7121987795732 0  13.50237455842738 306.4709525540879 0  305.9825168523021 487.24416992
[...]
<PointData  Vectors="f_12"> 
<DataArray  type="Float64"  Name="f_12"  NumberOfComponents="3" format="ascii">5.1656361253512539e-01 2.1051687723372775e-01 5.5976848421686554e-01  5.1976586075905251e-01 2.4923574567826601e-01 5.5367679920030510e-01  5.0843356526413397e-01 1.7450105168587607e-01 5.3863726926801236e-01  5.2851754579380661e-01 3.4421945652458097e-01 5.3316382278800833e-01  5.0847928735506631e-01 1.7433533866842893e-01 5.3890960883844474e-01  5.0852465866283147e-01 1.7420782972774504e-01 5.3916582791400303e-01  5.0858010131686660e-01 1.7409380167098018e-01 5.3946323781644323e-01  5.0863749947730519e-01 1.7401262262727815e-01 5.3975729675312178e-01  5.0869987812439521e-01 1.7395541773846049e-01 5.4006522273487800e-01  5.0876586717712879e-01 1.7392406769037086e-01 5.4038003759648034e-01  5.0883610917549271e-01 1.7391759184676381e-01 5.4070507453974792e-01  5.0891153346095441e-01 1.7393353461800315e-01 5.4104546061439696e-01  5.0899063664784960e-01 1.7397395006457647e-01 5.4139354245684368e-01  5.0907357061559511e-01 1.7403988778005813e-01 5.4174962427452655e-01  5.0915279659927259e-01 1.7414505481635917e-01 5.4207411439357067e-01  5.0925052820477179e-01 1.7424471065845551e-01 5.4248504615378768e-01  5.0933198974757932e-01 1.7440825630511667e-01 5.4279786578583256e-01  5.0943014653445740e-01 1.7457170059264870e-01 5.4318670606210351e-01  5.0952880096065511e-01 1.7476530623906184e-01 5.4356633507969332e-01  5.0963088099221787e-01 1.7498282648590166e-01 5.4395236003873526e-01  5.0973791289171888e-01 1.7522150322082480e-01 5.4435265822517087e-01  5.0984346002393310e-01 1.7549632616521535e-01 5.4473233805668697e-01  5.0995200355542802e-01 1.7579672504874091e-01 5.4511558939788463e-01  5.1007152030460101e-01 1.7610983010809764e-01 5.4554327237850442e-01  5.1019247941033896e-01 1.7645144979240796e-01 5.4596608985929196e-01  5.1031347600258969e-01 1.7682657836052912e-01 5.4637572338504470e-01  5.1043109253220154e-01 1.7723704790872782e-01 5.4675581247872340e-01  5.1056146115490619e-01 1.7765874447675184e-01 5.4718840077556286e-01  5.1069678847101052e-01 1.7810688000622077e-01 5.4763228564497335e-01  5.1082621520563876e-01 1.7859639083988357e-01 5.4803245607425155e-01  5.1096671017659023e-01 1.7910230743103048e-01 5.4847499282383716e-01  5.1110863405428297e-01 1.7964078566082470e-01 5.4890998122463819e-01  5.1125209711373854e-01 1.8020875895081898e-01 5.4933886156037337e-01  5.1140388098991174e-01 1.8079933223791239e-01 5.4979471851915795e-01  5.1155161228706503e-01 1.8143199952614145e-01 5.5021394270539981e-01  5.1170523034822202e-01 1.8209065787415868e-01 5.5064735901118733e-01  5.1187064228220169e-01 1.8277038996688544e-01 5.5112327193802790e-01  5.1203293724155607e-01 1.8349063677642405e-01 5.5156668193950609e-01  5.1219156050065306e-01 1.8425120595897870e-01 5.5197488761135372e-01  5.1235930591489109e-01 1.8503600542228729e-01 5.5241151601291838e-01  5.1253895983609032e-01 1.8584650043451686e-01 5.5288818103122539e-01  5.1271626243429191e-01 1.8669885387494264e-01 5.5333412615875355e-01  5.1288919589455761e-01 1.8759125149135808e-01 5.5374071887905441e-01  5.1307164592230026e-01 1.8851369923800440e-01 5.5417397062695728e-01  5.1325540136262415e-01 1.8947508634547439e-01 5.5459309133663814e-01  5.1344215119402581e-01 1.9047326911439513e-01 5.5500622614274608e-01  5.1363364260063371e-01 1.9150793310399472e-01 5.5542089436129849e-01  5.1383200914532823e-01 1.9257854202166416e-01 5.5584658834708334e-01  5.1402287742147201e-01 1.9369922272209841e-01 5.5621273131592186e-01  5.1421901966338690e-01 1.9485381139603455e-01 5.5658287902075632e-01  5.1442274301853752e-01 1.9605109848437655e-01 5.5696316129255374e-01  5.1462527042331496e-01 1.9728830472351763e-01 5.5731518385697743e-01  5.1483724638355988e-01 1.9856987598815301e-01 5.5768413064634403e-01  5.1504227701853988e-01 1.9989824760093075e-01 5.5799546021189472e-01  5.1525227259707362e-01 2.0127017441180134e-01 5.5830322045438219e-01  5.1547018969174752e-01 2.0268687209581440e-01 5.5861948078397461e-01  5.1568516369391260e-01 2.0415287551803613e-01 5.5889353154029764e-01  5.1590477079528063e-01 2.0566663047353248e-01 5.5915934148268753e-01  5.1612841623150885e-01 2.0722703923501862e-01 5.5941402213859459e-01  5.1637102158068793e-01 2.0883033896851691e-01 5.5972585039547229e-01  5.1679487630363263e-01 2.1222165874662530e-01 5.5996594405429923e-01  5.1702749497688050e-01 2.1398888366721777e-01 5.6013125548499310e-01  5.1727277883219092e-01 2.1581246525121389e-01 5.6031648311482740e-01  5.1749995508562396e-01 2.1768791751579036e-01 5.6038775458554246e-01  5.1773478784005833e-01 2.1961811842581014e-01 5.6045717683543606e-01  5.1796974903935489e-01 2.2160117033311574e-01 5.6049138756403771e-01  5.1821274923482807e-01 2.2364643769861134e-01 5.6052033176199745e-01  5.1845332748516060e-01 2.2574469392647734e-01 5.6050201895878060e-01  5.1869793058157476e-01 2.2789934984652088e-01 5.6046267221208734e-01  5.1894871883957050e-01 2.3011197884665363e-01 5.6041032670902313e-01  5.1919112965327363e-01 2.3237760998829707e-01 5.6028347262505274e-01  5.1944454557447062e-01 2.3469998385728630e-01 5.6016424445381607e-01  5.1970431451228671e-01 2.3708773360095164e-01 5.6002747643311468e-01  5.1995601055001539e-01 2.3951990371469328e-01 5.5982064109853935e-01  5.2020743767218747e-01 2.4200314584811031e-01 5.5957418279355364e-01  5.2046366923167708e-01 2.4454098230685603e-01 5.5930772139124207e-01  5.2072126607353797e-01 2.4712898743232392e-01 5.5900830221772257e-01  5.2098265120665987e-01 2.4976894891585910e-01 5.5868505651661160e-01  5.2124260946478951e-01 2.5245320871429849e-01 5.5831935929297405e-01  5.2149884835560956e-01 2.5517370342058865e-01 5.5790565593767583e-01  5.2177322987424213e-01 2.5796195298878222e-01 5.5751984068925808e-01  5.2202451409331563e-01 2.6074923487948576e-01 5.5702313282280069e-01  5.2229017837045888e-01 2.6359963398528324e-01 5.5654060882165579e-01  5.2254828000745090e-01 2.6646496800822450e-01 5.5600460919386085e-01  5.2280576707424598e-01 2.6935837652597205e-01 5.5543784667671603e-01  5.2306221394625119e-01 2.7227328995146693e-01 5.5484234413754085e-01  5.2331762073692578e-01 2.7520650373223760e-01 5.5421987796083394e-01  5.2357194468896084e-01 2.7815382929362614e-01 5.5357274041759041e-01  5.2381899715963476e-01 2.8109580996620137e-01 5.5288609840141711e-01  5.2406551854536443e-01 2.8404679774880898e-01 5.5218064730207439e-01  5.2430751175594559e-01 2.8698955083139899e-01 5.5144961791015434e-01  5.2454555981181183e-01 2.8992217203929799e-01 5.5069706557050369e-01  5.2478627442229564e-01 2.9286161793162840e-01 5.4994074469158527e-01  5.2501403822205317e-01 2.9575514759170879e-01 5.4914745237206308e-01  5.2522706611513870e-01 2.9858388904377087e-01 5.4832156670961096e-01  5.2544962981579779e-01 3.0143002102529148e-01 5.4751533194948043e-01  5.2566682733112435e-01 3.0424322384723229e-01 5.4669787986819596e-01  5.2586389794786770e-01 3.0695515243279065e-01 5.4584944661924206e-01  5.2606765018881918e-01 3.0966633104329278e-01 5.4502071886367820e-01  5.2627079765860241e-01 3.1235003376615450e-01 5.4419906473118429e-01  5.2644659443004105e-01 3.1487939328868769e-01 5.4335189409097429e-01  5.2662626521646150e-01 3.1738727750680529e-01 5.4252738430337633e-01  5.2679603641421080e-01 3.1981053257916481e-01 5.4170797585604025e-01  5.2696167998539301e-01 3.2217131671994936e-01 5.4090501573551442e-01  5.2711955845477987e-01 3.2444553969867479e-01 5.4011875274021393e-01  5.2727269485193673e-01 3.2664525896889440e-01 5.3935488434174106e-01  5.2741762534248660e-01 3.2874931972068266e-01 5.3861312965809405e-01  5.2755352464548089e-01 3.3074853224321349e-01 5.3789673997056986e-01  5.2768722642212917e-01 3.3267523587497505e-01 5.3721357651753143e-01  5.2781741329078002e-01 3.3452024129484986e-01 5.3656447845018940e-01  5.2793754459232223e-01 3.3624341040566053e-01 5.3594960503530187e-01  5.2804761761133134e-01 3.3783708259387857e-01 5.3537421662484452e-01  5.2814906442856668e-01 3.3930967029307801e-01 5.3483945781517017e-01  5.2825183162329648e-01 3.4071758927867640e-01 5.3434946094997016e-01  5.2834487090802928e-01 3.4199009288074211e-01 5.3390570689925576e-01  5.2843499169012664e-01 3.4316795524638843e-01 5.3350999975151936e-01  5.2858472024398462e-01 3.4508083408539320e-01 5.3287855647548832e-01  5.2869762769870299e-01 3.4617862642622332e-01 5.3262353449860556e-01  5.2874053621469419e-01 3.4672600361653488e-01 5.3244273443119594e-01  5.2880384094150634e-01 3.4732109382096610e-01 5.3231342501029888e-01  5.2886578587558286e-01 3.4782443191783824e-01 5.3223817665854145e-01  5.2891919750870331e-01 3.4818998741824470e-01 5.3221785415670164e-01  5.2896269875104551e-01 3.4840801648092257e-01 5.3225388920607930e-01  5.2900653169932310e-01 3.4854305692769783e-01 5.3234537994349485e-01  5.2904186133010178e-01 3.4853957122697543e-01 5.3249319531611672e-01  5.2910086434136716e-01 3.4860382130005513e-01 5.3269209757375224e-01  5.2911042149576093e-01 3.4827109928411437e-01 5.3295112750320939e-01  5.2912767467615140e-01 3.4790914364046027e-01 5.3326016253595143e-01  5.2914009049610489e-01 3.4744238202539773e-01 5.3361781333309621e-01  5.2915615835218954e-01 3.4691868495468542e-01 5.3402721675290388e-01  5.2916121431556029e-01 3.4625481820771226e-01 5.3448306192069861e-01  5.2914832281202617e-01 3.4541792406819605e-01 5.3497837656401315e-01  5.2913622459917409e-01 3.4451438733845396e-01 5.3551957990219523e-01  5.2911613844297511e-01 3.4349547146524312e-01 5.3610309408152224e-01  5.2908909665138204e-01 3.4237381814557571e-01 5.3672392757899212e-01  5.2905385723231080e-01 3.4114815766474066e-01 5.3737760347925290e-01  5.2900532198658057e-01 3.3979172151145148e-01 5.3806039399819483e-01  5.2894317828248993e-01 3.3830885099175118e-01 5.3876801618917280e-01  5.2887593347756312e-01 3.3674835473603948e-01 5.3950268700386161e-01  5.2880074939073030e-01 3.3509986128066793e-01 5.4025906232191900e-01  5.2871385828431694e-01 3.3334903124095627e-01 5.4103058744393073e-01  5.2861588191391373e-01 3.3150277269509099e-01 5.4181481473877779e-01  5.2850486961683463e-01 3.2955671566962830e-01 5.4260601129625141e-01  5.2838237969270530e-01 3.2752339225951160e-01 5.4340183172012724e-01  5.2824642845338032e-01 3.2539853898624505e-01 5.4419618343038434e-01  5.2809765081290638e-01 3.2319056511626532e-01 5.4498560999609003e-01  5.2793577626231558e-01 3.2090302757205530e-01 5.4576602335311919e-01  5.2776407758195687e-01 3.1855324944559466e-01 5.4653914219810540e-01  5.2758034837521728e-01 3.1613807687778867e-01 5.4729751535260429e-01  5.2738759014666869e-01 3.1366987210146907e-01 5.4804468560219644e-01  5.2717154810634992e-01 3.1110273938662825e-01 5.4875033873823986e-01  5.2694328191897843e-01 3.0848261359470358e-01 5.4943001150199167e-01  5.2670228584765066e-01 3.0581342143494950e-01 5.5007864991299849e-01  5.2645041008547167e-01 3.0310493917458081e-01 5.5069713802903553e-01  5.2618847415223868e-01 3.0036292566455852e-01 5.5128472307441989e-01  5.2592011899848823e-01 2.9760301672954048e-01 5.5184684954189822e-01  5.2562236907679116e-01 2.9475573622810258e-01 5.5232811893951317e-01  5.2531564016513610e-01 2.9189517941550197e-01 5.5276914660749499e-01  5.2501720324103607e-01 2.8906761465919684e-01 5.5321378488813633e-01  5.2469469603105090e-01 2.8618413954594563e-01 5.5357865103412662e-01  5.2435473921860187e-01 2.8327286911148941e-01 5.5387455359716709e-01  5.2400436928590466e-01 2.8035417979016114e-01 5.5411762664545805e-01  5.2367351695869024e-01 2.7750383424634556e-01 5.5439064021794471e-01  5.2329174800178979e-01 2.7455583468213063e-01 5.5449152667632617e-01  5.2292539989583198e-01 2.7166768083568271e-01 5.5460891753052188e-01  5.2254259458292562e-01 2.6877506727819084e-01 5.5464472752436145e-01  5.2217624866929524e-01 2.6594149229382152e-01 5.5470374497026342e-01  5.2178413515100608e-01 2.6308535418062323e-01 5.5465048070712730e-01  5.2138093618259684e-01 2.6024472182367558e-01 5.5452663150215953e-01  5.2097900656738083e-01 2.5744036475723336e-01 5.5437311573886150e-01  5.2057854375701706e-01 2.5467196924454916e-01 5.5419117640962756e-01  5.2017349693111481e-01 2.5193688379875079e-01 5.5395627140853676e-01  5.1935301691525326e-01 2.4656551793980391e-01 5.5334296855929543e-01  5.1893943594207370e-01 2.4393761771629496e-01 5.5296827055138598e-01  5.1853392686608224e-01 2.4135940778846413e-01 5.5258791928447437e-01  5.1812488284970892e-01 2.3882150269301253e-01 5.5215599155069517e-01  5.1771768079352509e-01 2.3633068867246529e-01 5.5169303216618215e-01  5.1731279328712587e-01 2.3388725195212162e-01 5.5120116104840611e-01  5.1691283826017553e-01 2.3149526146549221e-01 5.5069052904947147e-01  5.1651508213909414e-01 2.2915238767274190e-01 5.5015052819358856e-01  5.1612181506513388e-01 2.2686079267009696e-01 5.4959082219221955e-01  5.1573378116933688e-01 2.2462180372464516e-01 5.4901446378651264e-01  5.1535302431210284e-01 2.2243847955028920e-01 5.4842988677738491e-01  5.1497226375472971e-01 2.2030796657746876e-01 5.4780590494637615e-01  5.1460701411530985e-01 2.1823476670175060e-01 5.4721125013221017e-01  5.1424716099765078e-01 2.1621278708842578e-01 5.4660369124006047e-01  5.1389270613389448e-01 2.1425199675940371e-01 5.4597906201691560e-01  5.1355765281313071e-01 2.1233947475075368e-01 5.4540806792969654e-01  5.1322822852141092e-01 2.1047970621518339e-01 5.4482657968855253e-01  5.1289949297636062e-01 2.0868412691396454e-01 5.4420682903670059e-01  5.1258719927562924e-01 2.0694067869724342e-01 5.4362770351263323e-01  5.1228324434261785e-01 2.0525170950318147e-01 5.4305127281465571e-01  5.1199171907051078e-01 2.0361565392300188e-01 5.4249800685419047e-01  5.1171184108069012e-01 2.0203369659656048e-01 5.4196439417213638e-01  5.1144288935313975e-01 2.0050303359202371e-01 5.4144904889238621e-01  5.1118717518839163e-01 1.9902288388324493e-01 5.4096374355127708e-01  5.1093782897550810e-01 1.9760059226611743e-01 5.4047383199590171e-01  5.1070386080688490e-01 1.9622794386630313e-01 5.4002554112537893e-01  5.1048194049625506e-01 1.9489929338715528e-01 5.3960666820752923e-01  5.1026763223999538e-01 1.9363111793540003e-01 5.3918961858569903e-01  5.1006849689370348e-01 1.9240409981365258e-01 5.3881888925342902e-01  5.0988080955102144e-01 1.9122634709099162e-01 5.3847401009394003e-01  5.0970346633425789e-01 1.9009750424526334e-01 5.3815062738213126e-01  5.0953774991513723e-01 1.8901465339436666e-01 5.3785647322747510e-01  5.0938306157401669e-01 1.8797806385889609e-01 5.3758915206516966e-01  5.0924031432443850e-01 1.8698395031728135e-01 5.3735500187626650e-01  5.0911047074913296e-01 1.8602727207443717e-01 5.3716112873668598e-01  5.0898682553283814e-01 1.8512528732057495e-01 5.3696935894391662e-01  5.0887405074354097e-01 1.8426723918081667e-01 5.3680648960154753e-01  5.0877700042561691e-01 1.8343259764574682e-01 5.3670411326166401e-01  5.0868639439155805e-01 1.8264789274924084e-01 5.3660819455605135e-01  5.0860391862206022e-01 1.8190856072933698e-01 5.3652890451976443e-01  5.0853268370468740e-01 1.8120162645432433e-01 5.3648641757105053e-01  5.0846952869636886e-01 1.8053441443970325e-01 5.3646327622718726e-01  5.0841818895748903e-01 1.7989707974327221e-01 5.3648116465134654e-01  5.0837050451885990e-01 1.7930808340001869e-01 5.3649487043236388e-01  5.0833486935779670e-01 1.7874450249878823e-01 5.3655298592427747e-01  5.0830557345064575e-01 1.7821958488953987e-01 5.3662384824126330e-01  5.0828445967851088e-01 1.7772608450926936e-01 5.3671902354622447e-01  5.0827154199394831e-01 1.7726100105243806e-01 5.3684001157145955e-01  5.0826390892166884e-01 1.7683757217315055e-01 5.3696835438002033e-01  5.0826249411546931e-01 1.7644722561430309e-01 5.3711183137577989e-01  5.0827059290221754e-01 1.7607641657916553e-01 5.3729114807847023e-01  5.0828278475510980e-01 1.7574248763846181e-01 5.3747456481214695e-01  5.0830016518956411e-01 1.7544182116924903e-01 5.3766875534029634e-01  5.0832427897023047e-01 1.7516643922600605e-01 5.3788395984991577e-01  5.0835522593956028e-01 1.7491718432870990e-01 5.3812049982111010e-01  5.0838998238179900e-01 1.7470107069363530e-01 5.3836167921800682e-01  5.0838512866880403e-01 1.8035104434468516e-01 5.3614417117305213e-01  5.2506622496079236e-01 2.9051521383384621e-01 5.5255384314715827e-01  5.1140960587303053e-01 1.8125038432371479e-01 5.4964553851489117e-01  5.1982921201835552e-01 2.5038732466786329e-01 5.5331672167095669e-01  5.0834739323381728e-01 1.7475168906541139e-01 5.3814593806158539e-01  5.2673441718269820e-01 3.2028081858308316e-01 5.4116036982758642e-01  5.1362029795563868e-01 1.9211103820083725e-01 5.5510430315882253e-01  5.1656041597698288e-01 2.1135228752786137e-01 5.5935406142721511e-01  5.2841162141664766e-01 3.4378276105830202e-01 5.3302262556094315e-01  5.2380008568115377e-01 2.8219667340031507e-01 5.5215572923114187e-01  5.0926770625058893e-01 1.8761962788993408e-01 5.3720767494816313e-01  5.2768829918561599e-01 3.1904859502174326e-01 5.4592001849482874e-01  5.2501101098224523e-01 2.9700788757826657e-01 5.4837563782865639e-01  5.1030312144481693e-01 1.9432226395733052e-01 5.3904061614230614e-01  5.2201620098387136e-01 2.6194501221792060e-01 5.5630983988056060e-01  5.1054685047580572e-01 1.7797389153976312e-01 5.4700403555146337e-01  5.2861403782624039e-01 3.3356372898258407e-01 5.4049003416324948e-01  5.2898400678128576e-01 3.4318657597255298e-01 5.3577159285109033e-01  5.0971406768403249e-01 1.7550691050619335e-01 5.4413982149824380e-01  5.1204261625234027e-01 2.0438693327495369e-01 5.4236218661005120e-01  5.2048505573504156e-01 2.4576190978792486e-01 5.5873493121101458e-01  5.1433277004077671e-01 2.1722899557246242e-01 5.4647926581222894e-01  5.0931092367629660e-01 1.7461582314282989e-01 5.4262615107045198e-01  5.2896816141077219e-01 3.4709813200903628e-01 5.3314881661495450e-01  5.1896193420681480e-01 2.3139711315717096e-01 5.5979868398219634e-01  5.1617107916324778e-01 2.2792876009882931e-01 5.4925370374446003e-01  5.0886849532771505e-01 1.7410130055808332e-01 5.4078691991779548e-01  5.0820315945342820e-01 1.7720131766705219e-01 5.3654539259191802e-01  5.2295909414431896e-01 2.7277685552865261e-01 5.5411022419906464e-01  5.2760782486338931e-01 3.3277904213513115e-01 5.3682618685906602e-01  5.1482052364955733e-01 1.9927387431554375e-01 5.5729428845646778e-01  5.1233262392399526e-01 1.8537627967346818e-01 5.5215461860359194e-01  5.2882508022457941e-01 3.4754803458303712e-01 5.3226158249974054e-01  5.1797875729914511e-01 2.2271180340861560e-01 5.5997022452499690e-01  5.1779515287592703e-01 2.3746325455901807e-01 5.5142887367863325e-01  5.0860261499963033e-01 1.7412678378720159e-01 5.3955483473619392e-01  5.2583510548689238e-01 3.0770764015071672e-01 5.4526642051622976e-01  5.2642571902067559e-01 3.0393255544796316e-01 5.5008954116573716e-01  5.0823133026016420e-01 1.7573537947293749e-01 5.3723864444583846e-01  5.0867136780436228e-01 1.8320381187424367e-01 5.3630730041242780e-01  5.2136816110115058e-01 2.6105905026089782e-01 5.5401088415176036e-01  5.2805108330083650e-01 3.3905220307898526e-01 5.3461064584014428e-01  5.1564584191311313e-01 2.0476114563804113e-01 5.5843783063289187e-01  5.1014425032676614e-01 1.7680852850997847e-01 5.4561477784646784e-01  5.1418438270300837e-01 1.9550716819896266e-01 5.5614346669371995e-01  5.2866200191648105e-01 3.4633581830088755e-01 5.3238360355282965e-01  5.2720630060271745e-01 3.2694108286787793e-01 5.3889726367790625e-01  5.1721999192003232e-01 2.1672536435379314e-01 5.5963558821079318e-01  5.2304998579169948e-01 2.7350713238732460e-01 5.5407295424046488e-01  5.0825566017030943e-01 1.7862677652468345e-01 5.3623081955927387e-01  5.1184217067274695e-01 1.8325759200061595e-01 5.5080269373215018e-01  5.1096356168431278e-01 1.9833358535473844e-01 5.4025233016882734e-01  5.2881696749775908e-01 3.3820540323211168e-01 5.3832604845976950e-01  5.1296059124932758e-01 2.0949993456903984e-01 5.4408650110110290e-01  5.2402258893890008e-01 2.8141176008378171e-01 5.5357253290614294e-01  5.1287735805319279e-01 1.8813085166612623e-01 5.5346484446364752e-01  5.0972942413