<?xml version="1.0"?>
<VTKFile type="UnstructuredGrid"  version="0.1"  >
<UnstructuredGrid>
<Piece  NumberOfPoints="4940" NumberOfCells="9650">
<Points>
<DataArray  type="Float64"  NumberOfComponents="3"  format="ascii">500 250 0  0 250 0  250 500 0  250 0 0  256.8885856082646 499.9050767557906 0  263.7719401218049 499.6203791065173 0  270.6448364229772 499.1461232471188 0  277.5020553257866 498.4826693209355 0  284.3383895508592 497.6305211460281 0  291.1486476865662 496.5903258312597 0  297.9276581259182 495.3628732847843 0  304.6702729675493 493.9490956196674 0  311.3713719748657 492.3500664368026 0  318.0258664141369 490.5670000199653 0  324.6287029687753 488.6012504015818 0  331.1748675330201 486.4543103455647 0  337.6593890460416 484.1278102064655 0  344.0773432429536 481.6235166997244 0  350.4238564271474 478.9433315480048 0  356.694109139292 476.0892900492477 0  362.88333985546 473.0635595140469 0  368.9868485575419 469.8684376402048 0  375.0000003153078 466.5063507640667 0  380.9182288257928 462.9798520074548 0  386.7370398729688 459.2916193419558 0  392.4520147244077 455.444453565817 0  398.0588135356345 451.4412761437442 0  403.5531785622926 447.285127045646 0  408.9309374414144 442.9791624087773 0  414.1880064015299 438.5266521049243 0  419.3203932989752 433.9309773069245 0  424.324200661095 429.1956279150535 0  429.1956286596235 424.3241998957182 0  433.9309780058756 419.3203925397119 0  438.5266527445345 414.1880056671062 0  442.9791630130591 408.9309367076756 0  447.2851276060475 403.5531778422888 0  451.4412766621026 398.0588128303826 0  455.4444540361634 392.4520140460735 0  459.2916197786263 386.7370392045948 0  462.9798524073514 380.9182281752347 0  466.5063511234856 374.9999996927758 0  469.8684379657123 368.9868479560565 0  473.0635598144817 362.8833392617846 0  476.0892903190255 356.6941085676214 0  478.9433317963513 350.4238558609745 0  481.6235169154735 344.0773427117675 0  484.12781039012 337.6593885555221 0  486.4543105028062 331.1748670749914 0  488.601250531677 324.6287025528375 0  490.5670001317469 318.0258660188321 0  492.3500665291326 311.3713716102628 0  493.949095695951 304.6702726271575 0  495.3628733416623 297.9276578347343 0  496.5903258712341 291.1486474470129 0  497.6305211749058 284.3383893426084 0  498.4826693388848 277.502055163614 0  499.1461232580606 270.6448362909296 0  499.6203791109319 263.7719400417897 0  499.9050767571306 256.8885855596534 0  499.9050767559877 243.1114143988867 0  499.6203791069493 236.2280598860241 0  499.1461232485393 229.3551635941651 0  498.4826693235677 222.4979446979962 0  497.6305211491849 215.6616104719064 0  496.5903258357701 208.8513523404629 0  495.3628732906988 202.0723419043604 0  493.9490956264813 195.3297270628552 0  492.3500664487791 188.6286280724281 0  490.5670000344809 181.9741336371959 0  488.6012504175981 175.3712970824318 0  486.4543103623226 168.8251325157939 0  484.1278102222298 162.3406109960628 0  481.6235167152198 155.9226567951971 0  478.9433315621651 149.5761436051346 0  476.0892900516498 143.3058908657982 0  473.063559513628 137.1166601437124 0  469.8684376406648 131.0131514433083 0  466.5063507675389 124.9999996907064 0  462.9798520124137 119.0817711822745 0  459.2916193464549 113.2629601339176 0  455.4444535642773 107.5479852733717 0  451.4412761528674 101.9411864767781 0  447.2851270583545 96.44682145403524 0  442.9791624165781 91.06906256805769 0  438.5266521117469 85.81199360630404 0  433.9309773156125 80.67960671046254 0  429.1956279150353 75.67579933888632 0  424.3241998888952 70.80437133373906 0  419.3203925223282 66.06902197812161 0  414.1880056411937 61.47334723289828 0  408.9309366751728 57.0208369601728 0  403.5531778009394 52.71487236176898 0  398.058812796452 48.55872331295853 0  392.4520140187753 44.55554594490843 0  386.7370391799677 40.70838020528396 0  380.9182281475119 37.02014757560744 0  374.9999996718656 33.49364886444181 0  368.9868479340393 30.13156202237255 0  362.8833392380029 26.93644017348339 0  356.6941085456942 23.91070967062674 0  350.4238558420009 21.0566681953261 0  344.0773426899492 18.37648307566465 0  337.6593885328982 15.87218960140942 0  331.1748670549786 13.54568949032341 0  324.6287025315056 11.39874946165088 0  318.0258660010876 9.432999863235466 0  311.3713716017894 7.649933468721599 0  304.6702726190621 6.050904302234756 0  297.9276578269805 4.637126656823085 0  291.148647441857 3.409674127905504 0  284.3383893425031 2.369478825079682 0  277.502055159398 1.517330660648639 0  270.6448362875833 0.853876741662134 0  263.7719400401456 0.3796208889774277 0  256.8885855592052 0.09492324285704967 0  243.1114143979462 0.09492324403817065 0  236.2280598850882 0.3796208931023841 0  229.3551635938215 0.8538767514891958 0  222.4979446968584 1.517330676558146 0  215.6616104703111 2.369478851036291 0  208.8513523382973 3.409674164591252 0  202.0723419066374 4.637126708856528 0  195.3297270659513 6.050904372824903 0  188.628628074828 7.649933550613184 0  181.9741336377093 9.432999965373938 0  175.3712970793675 11.39874958336037 0  168.8251325057572 13.54568964112298 0  162.340610986655 15.87218978129263 0  155.9226567874317 18.37648328793418 0  149.576143602509 21.05666843898663 0  143.3058908718157 23.91070994551046 0  137.1166601505524 26.93644048291054 0  131.0131514451933 30.13156235831508 0  124.9999996848412 33.49364923584736 0  119.0817711715717 37.0201479941652 0  113.2629601211624 40.70838066187849 0  107.5479852622251 44.55554644345162 0  101.9411864693332 48.55872385260452 0  96.44682143286516 52.71487295812284 0  91.06906254351222 57.02083760363669 0  85.81199358272519 61.4733479087879 0  80.67960667988106 66.06902271253972 0  75.67579930062769 70.80437212218331 0  70.80437129287643 75.67580015310926 0  66.06902193673014 80.67960752263491 0  61.47334718684866 85.81199441168215 0  57.02083692524275 91.0690633672404 0  52.71487232786438 96.44682224262129 0  48.55872328070024 101.941187247437 0  44.55554591578033 107.5479860232332 0  40.7083801742321 113.2629608675606 0  37.02014754791168 119.0817718975441 0  33.49364883372994 125.000000381329 0  30.13156199866361 131.0131521097709 0  26.9364401549829 137.1166607985551 0  23.91070965524918 143.3058914868915 0  21.05666818346614 149.576144185037 0  18.37648306853811 155.9226573275967 0  15.8721895918909 162.3406114925245 0  13.54568948170046 168.8251329701392 0  11.39874945301878 175.3712974960928 0  9.432999857087736 181.9741340206533 0  7.649933466342702 188.6286284076045 0  6.050904301250966 195.3297273853278 0  4.637126656808988 202.0723421730917 0  3.409674127767772 208.8513525589684 0  2.369478824521138 215.6616106615248 0  1.517330660909465 222.4979448382452 0  0.8538767414496533 229.355163714981 0  0.3796208887135322 236.2280599646376 0  0.09492324266324204 243.1114144478261 0  0.0949232442452228 256.8885856095658 0  0.3796208935834784 263.7719401236316 0  0.8538767530323526 270.6448364248016 0  1.517330679476544 277.5020553295092 0  2.369478854618649 284.3383895555228 0  3.409674170191892 291.1486476952655 0  4.6371267162381 297.9276581311522 0  6.050904381420935 304.6702729724059 0  7.649933562385399 311.3713719716595 0  9.43299997979841 318.0258664133013 0  11.3987495994252 324.6287029719946 0  13.54568965885832 331.174867545904 0  15.87218979367188 337.6593890464085 0  18.37648329843151 344.0773432384132 0  21.05666844777872 350.423856417535 0  23.91070995156048 356.6941091410045 0  26.93644048988043 362.8833398632205 0  30.13156235982007 368.9868485575877 0  33.49364924138357 375.0000003247478 0  37.0201480006036 380.9182288389023 0  40.70838066758398 386.7370398875706 0  44.55554644477201 392.4520147396792 0  48.55872386086904 398.0588135419111 0  52.71487295981296 403.5531785693063 0  57.02083760525949 408.9309374584583 0  61.47334790862246 414.1880064170849 0  66.06902271205095 419.320393319588 0  70.80437211216579 424.3242006890749 0  75.67580013809859 429.195628692521 0  80.6796075127923 433.930978054209 0  85.81199439754931 438.5266528008431 0  91.06906334717917 442.9791630582355 0  96.44682221438322 447.2851276501571 0  101.9411872243843 451.441276702356 0  107.5479859945825 455.4444540643537 0  113.2629608446994 459.2916198108319 0  119.0817718768376 462.9798524393601 0  125.0000003647644 466.5063511567065 0  131.0131521012763 469.8684379967393 0  137.1166607840049 473.0635598376539 0  143.3058914748804 476.0892903390826 0  149.5761441732679 478.9433318113714 0  155.9226573130112 481.6235169255377 0  162.3406114779862 484.1278104026658 0  168.8251329570439 486.4543105138039 0  175.3712974805475 488.601250542119 0  181.9741340135204 490.5670001408953 0  188.6286284005059 492.3500665318597 0  195.3297273788229 493.9490956972913 0  202.0723421640089 495.3628733414168 0  208.8513525529672 496.5903258712308 0  215.6616106544547 497.6305211744985 0  222.4979448327038 498.4826693384772 0  229.3551637102845 499.1461232581612 0  236.2280599621369 499.6203791111485 0  243.1114144470173 499.9050767573145 0  155.2373389820306 474.8197567317462 0  25.36256300907667 153.9152755065208 0  432.3709625126712 412.6214396304305 0  6.013151705810699 246.637913163471 0  246.6379131630491 493.986848294322 0  338.6995838441862 22.68244767887072 0  477.3175523131281 338.6995838660569 0  493.9868482700757 246.6379131399102 0  246.6201155078769 6.218451882810491 0  417.6179310263282 72.7156044707053 0  102.2232990934413 445.0100869616822 0  63.66330858966404 92.20354579482142 0  391.3105220491464 50.73522820883105 0  72.79295043967942 418.0702734974704 0  448.290574428537 108.25674339002 0  402.4604651193511 440.7462829841712 0  97.55317348421397 59.11376320116034 0  136.7376477664901 33.58246472647134 0  363.3288394375288 465.6947312928271 0  44.0678766556007 381.0860953771871 0  469.6905266180034 142.3890690100806 0  22.68244791668644 338.6995843487432 0  338.699584349159 477.317552078365 0  173.389488083762 18.6681884918202 0  483.4809734778481 179.7121987795732 0  13.50237455842738 306.4709525540879 0  305.9825168523021 487.24416992
[...]
<PointData  Vectors="f_12"> 
<DataArray  type="Float64"  Name="f_12"  NumberOfComponents="3" format="ascii">5.4212591242420194e-01 2.1928747665426968e-01 6.5142173724200192e-01  5.1504104781949278e-01 1.6858136607204688e-01 5.6868761605979257e-01  5.5273245536586968e-01 2.5202511470019434e-01 6.6984901928550433e-01  5.7579851026005513e-01 3.9180419824829127e-01 6.4912737784436891e-01  5.5291034761460423e-01 2.5265566374570525e-01 6.7007457785428348e-01  5.5307222747058382e-01 2.5323219181381457e-01 6.7027706941650067e-01  5.5322852102831943e-01 2.5379127823465003e-01 6.7047013159105728e-01  5.5337117268408931e-01 2.5430358077843784e-01 6.7064432704374843e-01  5.5350386916582339e-01 2.5478201139128387e-01 6.7080453850351096e-01  5.5362615353991451e-01 2.5522443902439901e-01 6.7095060333897427e-01  5.5373823349726270e-01 2.5563126129159408e-01 6.7108319595310473e-01  5.5384097928640685e-01 2.5600536086888898e-01 6.7120361355484914e-01  5.5393358624257338e-01 2.5634350986953175e-01 6.7131118904076614e-01  5.5401549146780593e-01 2.5664335068356570e-01 6.7140562430373651e-01  5.5408054469501833e-01 2.5688202119650111e-01 6.7148011571028521e-01  5.5414886031981769e-01 2.5713318746347852e-01 6.7155782529398556e-01  5.5418929665744343e-01 2.5728216050796332e-01 6.7160356808184030e-01  5.5423040787756872e-01 2.5743386097575027e-01 6.7164985585962189e-01  5.5425865413654019e-01 2.5753834034718603e-01 6.7168147625003594e-01  5.5427763774130379e-01 2.5760875262120164e-01 6.7170259607296212e-01  5.5428841889824898e-01 2.5764896128768083e-01 6.7171438712201414e-01  5.5428253440469488e-01 2.5762773644412340e-01 6.7170750610379115e-01  5.5426519750814174e-01 2.5756431071901820e-01 6.7168775967329941e-01  5.5424453130977624e-01 2.5748869473517799e-01 6.7166411450803287e-01  5.5421218386474369e-01 2.5737011604609999e-01 6.7162725304736015e-01  5.5416478281381076e-01 2.5719636450949895e-01 6.7157316473693907e-01  5.5410098650130857e-01 2.5696263980321160e-01 6.7150016572217464e-01  5.5403415661308575e-01 2.5671825984385915e-01 6.7142321278471129e-01  5.5395656142322747e-01 2.5643502751352265e-01 6.7133331484194658e-01  5.5385924518465235e-01 2.5608045841308524e-01 6.7121988691910917e-01  5.5375607401936366e-01 2.5570561121199564e-01 6.7109859584977050e-01  5.5363872986892904e-01 2.5528055269284022e-01 6.7095932205328757e-01  5.5350827356906263e-01 2.5480946658217063e-01 6.7080303767845917e-01  5.5336909306491244e-01 2.5430871941593375e-01 6.7063441320999007e-01  5.5320904509826963e-01 2.5373515369034982e-01 6.7043819649441894e-01  5.5303750745896108e-01 2.5312307724831962e-01 6.7022527110292229e-01  5.5285885915932709e-01 2.5248861563918334e-01 6.7000041087493489e-01  5.5265937834073886e-01 2.5178375799806374e-01 6.6974573152413175e-01  5.5243797608063872e-01 2.5100580930869243e-01 6.6945875788081644e-01  5.5220673929122444e-01 2.5019814845144334e-01 6.6915409801530368e-01  5.5196646815151440e-01 2.4936421099598916e-01 6.6883214833012195e-01  5.5170358108172424e-01 2.4845786636239683e-01 6.6847374095892953e-01  5.5141755292935479e-01 2.4747859184630877e-01 6.6807675062525973e-01  5.5111785966453164e-01 2.4646057127969911e-01 6.6765269021962470e-01  5.5079636645722507e-01 2.4537742572108007e-01 6.6718871671962954e-01  5.5045491005036462e-01 2.4423675195773914e-01 6.6668583848645113e-01  5.5009418697143520e-01 2.4304268622983119e-01 6.6614331370581359e-01  5.4971466564541827e-01 2.4179832087268416e-01 6.6556045428929911e-01  5.4930206233347956e-01 2.4045956074715963e-01 6.6491203710127755e-01  5.4886969573883471e-01 2.3907133082917026e-01 6.6421745028372425e-01  5.4841322267145920e-01 2.3762294650702828e-01 6.6346631385485266e-01  5.4792967402582660e-01 2.3610628706611445e-01 6.6265212753689173e-01  5.4742107649740368e-01 2.3453154869293577e-01 6.6177444103970151e-01  5.4687648699774938e-01 2.3286751382280468e-01 6.6081145775221528e-01  5.4630360509191467e-01 2.3114162694336376e-01 6.5977245975701049e-01  5.4570296356953907e-01 2.2935887739114491e-01 6.5865501569331530e-01  5.4506430661590233e-01 2.2749266426580825e-01 6.5743552948039663e-01  5.4439181173402995e-01 2.2555959617558849e-01 6.5611767185787040e-01  5.4368644687034795e-01 2.2356627846136218e-01 6.5469725407952861e-01  5.4295770785797215e-01 2.2153992084092319e-01 6.5319699193356029e-01  5.4130849463364650e-01 2.1710472833062158e-01 6.4963646230675565e-01  5.4043784813263063e-01 2.1483437695125576e-01 6.4768041413041988e-01  5.3952760885820195e-01 2.1251477204558203e-01 6.4557791862696645e-01  5.3855565441494935e-01 2.1009590815429599e-01 6.4326679538002718e-01  5.3753771545017748e-01 2.0762762711052463e-01 6.4077784101044899e-01  5.3646965456924300e-01 2.0510550651871334e-01 6.3808937918414432e-01  5.3534828825776082e-01 2.0253516988163900e-01 6.3518364414853334e-01  5.3417043990754465e-01 1.9991652202130866e-01 6.3204100222169168e-01  5.3293927934986474e-01 1.9726777131604184e-01 6.2865859393762202e-01  5.3165514363137378e-01 1.9460048537971372e-01 6.2502587048887193e-01  5.3030049805295421e-01 1.9189127000051870e-01 6.2107683136569447e-01  5.2889698312083488e-01 1.8919589359516575e-01 6.1686379855783824e-01  5.2743144455958613e-01 1.8650121482886167e-01 6.1233123934614409e-01  5.2589739318108508e-01 1.8381186394096735e-01 6.0744307319385871e-01  5.2430066810208475e-01 1.8115447567739573e-01 6.0219886157298030e-01  5.2264527996416910e-01 1.7855345465391495e-01 5.9659556118745227e-01  5.2093095457116600e-01 1.7602460820837820e-01 5.9061355488237999e-01  5.1915885509332604e-01 1.7359052557190185e-01 5.8423861055880610e-01  5.1732653997218137e-01 1.7126864050471349e-01 5.7744163859829178e-01  5.1544023286850282e-01 1.6908886115519497e-01 5.7022446730029919e-01  5.1352201460753377e-01 1.6709623636349435e-01 5.6265578980142306e-01  5.1154084854294135e-01 1.6529582877902360e-01 5.5458457778232018e-01  5.0952893751232131e-01 1.6374275463181473e-01 5.4612177860738564e-01  5.0748784484364962e-01 1.6246767222609576e-01 5.3725403192892351e-01  5.0543082373359083e-01 1.6151968653501667e-01 5.2801214673851049e-01  5.0337367112561682e-01 1.6094505804764314e-01 5.1844563534830490e-01  5.0133209924699795e-01 1.6078996143077712e-01 5.0860654946955874e-01  4.9932697702451495e-01 1.6110235435063150e-01 4.9857608842667811e-01  4.9737800342677635e-01 1.6192065119786700e-01 4.8843528862839614e-01  4.9551483810505970e-01 1.6328578993365928e-01 4.7832271998491160e-01  4.9376676362275512e-01 1.6520343303725724e-01 4.6839584778967780e-01  4.9216537234809615e-01 1.6764977351447916e-01 4.5884583272687524e-01  4.9074864538592133e-01 1.7053769854395728e-01 4.4993686662082349e-01  4.8952930004291895e-01 1.7375040068556799e-01 4.4181887410477899e-01  4.8853330872932987e-01 1.7705045574821576e-01 4.3478065608551503e-01  4.8779421006915663e-01 1.8004391045677018e-01 4.2923709771929081e-01  4.8731021178771411e-01 1.8236742836064559e-01 4.2539891941555613e-01  4.8709051731965841e-01 1.8365483190758175e-01 4.2353609284114280e-01  4.8720018634666917e-01 1.8338710902997149e-01 4.2429316647576959e-01  4.8771478436200350e-01 1.8140594344384425e-01 4.2816345973764414e-01  4.8875929913726723e-01 1.7799172233942195e-01 4.3563951583013016e-01  4.9069583114424714e-01 1.7333108421052998e-01 4.4847045909113914e-01  4.9382077046756806e-01 1.6870712708849273e-01 4.6731245720930159e-01  4.9862737116175909e-01 1.6563372219177011e-01 4.9348922179334576e-01  5.0544668501075296e-01 1.6637165653723715e-01 5.2659719146804418e-01  5.1431199452567467e-01 1.7306767234283926e-01 5.6434507925794475e-01  5.2461882141778549e-01 1.8698802495514438e-01 6.0173871762460895e-01  5.3530823634509828e-01 2.0774787354469609e-01 6.3333656853047082e-01  5.4528633947784311e-01 2.3336186200943715e-01 6.5584127885652899e-01  5.5379581093536556e-01 2.6094298878853839e-01 6.6877346120845516e-01  5.6055008908333070e-01 2.8780438159882293e-01 6.7405078992504097e-01  5.6557896662048546e-01 3.1219181488767916e-01 6.7392728980539029e-01  5.6922926545314512e-01 3.3353712591206974e-01 6.7069252588669404e-01  5.7184557101580569e-01 3.5198845283808544e-01 6.6579922710258421e-01  5.7367559249734290e-01 3.6761739265298926e-01 6.6020844805726753e-01  5.7494531868610543e-01 3.8083040321281053e-01 6.5452877306452839e-01  5.7632279922761442e-01 4.0048190828770047e-01 6.4440330050790673e-01  5.7676327182624043e-01 4.0892618231312466e-01 6.3954734851895545e-01  5.7694598838246591e-01 4.1442048295209100e-01 6.3608315335247345e-01  5.7706805922326077e-01 4.1903237929287535e-01 6.3308985016872599e-01  5.7713890896896125e-01 4.2252862771554500e-01 6.3075178217485617e-01  5.7717095184193112e-01 4.2481288687397284e-01 6.2918499506961056e-01  5.7718435028310777e-01 4.2602587543940446e-01 6.2834168783797462e-01  5.7718713692076284e-01 4.2627895334488958e-01 6.2816564730691760e-01  5.7717940757118935e-01 4.2551147287694269e-01 6.2870099517354927e-01  5.7716473971461668e-01 4.2410527447060853e-01 6.2967957125807716e-01  5.7711591658050276e-01 4.2112190971418517e-01 6.3170741709217093e-01  5.7702597515394671e-01 4.1721571460655893e-01 6.3428613501317155e-01  5.7687172601487713e-01 4.1219498506891511e-01 6.3748921920360424e-01  5.7663276813638742e-01 4.0616113720194713e-01 6.4117017141124755e-01  5.7624992251754192e-01 3.9870290610372816e-01 6.4545471201195481e-01  5.7565940697668649e-01 3.8960112059643570e-01 6.5030069380064814e-01  5.7481172651675383e-01 3.7901753687913309e-01 6.5541512717183370e-01  5.7362302725664982e-01 3.6675212719059935e-01 6.6064265427660585e-01  5.7198300236935118e-01 3.5263082765593418e-01 6.6570824534896922e-01  5.6975556051160225e-01 3.3647712872528118e-01 6.7021866443263833e-01  5.6674786645771613e-01 3.1807572710548793e-01 6.7354525956820332e-01  5.6284221539232671e-01 2.9770194226606261e-01 6.7484574107907758e-01  5.5794059792724593e-01 2.7591885060237870e-01 6.7303870866228754e-01  5.5196758121117506e-01 2.5337643488439576e-01 6.6699961152852028e-01  5.4497744362276135e-01 2.3113243960443805e-01 6.5569288929142977e-01  5.3722962995484003e-01 2.1062303977962510e-01 6.3868757255185393e-01  5.2915458148467553e-01 1.9318378972546435e-01 6.1653822001603098e-01  5.2130633330720400e-01 1.7977131270964516e-01 5.9099911193009314e-01  5.1416735883804643e-01 1.7059339030625637e-01 5.6440206758966704e-01  5.0807823099827931e-01 1.6523920651092983e-01 5.3912334700991227e-01  5.0316188367908610e-01 1.6289125163615167e-01 5.1681553976200267e-01  4.9939767804038732e-01 1.6258357123570558e-01 4.9843245882542619e-01  4.9662176188767548e-01 1.6343262525060423e-01 4.8402180301603509e-01  4.9468001314293675e-01 1.6475561796607813e-01 4.7340708703527118e-01  4.9334636194387521e-01 1.6609015143167502e-01 4.6582105433964438e-01  4.9253953714103449e-01 1.6708492689644810e-01 4.6109974444000607e-01  4.9214783248455968e-01 1.6759545545604848e-01 4.5877966098469491e-01  4.9209596306706915e-01 1.6759466786530580e-01 4.5849789323155893e-01  4.9233042692447154e-01 1.6713800762900202e-01 4.5994671185494163e-01  4.9281086930566509e-01 1.6633745977623160e-01 4.6284951928255591e-01  4.9348058536879730e-01 1.6535839822999540e-01 4.6681440778713851e-01  4.9432327891062305e-01 1.6430470075630901e-01 4.7168830076894996e-01  4.9533658609109288e-01 1.6325969975662261e-01 4.7740135993030425e-01  4.9646495524214423e-01 1.6233990893992886e-01 4.8359557505181944e-01  4.9769274018912185e-01 1.6159658258034382e-01 4.9015329694348081e-01  4.9900615569771284e-01 1.6105779007010329e-01 4.9698106574760792e-01  5.0040236137997074e-01 1.6074322055252671e-01 5.0404492036531345e-01  5.0181941988274492e-01 1.6066999730849041e-01 5.1102275522108065e-01  5.0328765383973129e-01 1.6082350189219888e-01 5.1806924990630654e-01  5.0476678677206055e-01 1.6118920175825374e-01 5.2498874545321716e-01  5.0627526874890283e-01 1.6177333914558939e-01 5.3186866172309288e-01  5.0777387244041083e-01 1.6253665613468088e-01 5.3853804763590207e-01  5.0925842670941412e-01 1.6346884980786269e-01 5.4498642344234316e-01  5.1073332549206174e-01 1.6455596892409918e-01 5.5124199247349359e-01  5.1219414062042123e-01 1.6578374654853553e-01 5.5729410232663490e-01  5.1363004247167199e-01 1.6712922439385994e-01 5.6310580133539789e-01  5.1642252478369888e-01 1.7012376377696964e-01 5.7403005406450958e-01  5.1777111937889131e-01 1.7174244576020384e-01 5.7912861630207502e-01  5.1909432056694349e-01 1.7343698251068165e-01 5.8402155929724198e-01  5.2038154578144191e-01 1.7518393172800098e-01 5.8867620624012340e-01  5.2163470032344972e-01 1.7697724516129978e-01 5.9310939969790899e-01  5.2285392528578656e-01 1.7880867363813130e-01 5.9732942719114035e-01  5.2403914371500648e-01 1.8067070125582896e-01 6.0134361645431000e-01  5.2518949050058505e-01 1.8255428530663337e-01 6.0515633966192894e-01  5.2630615155344507e-01 1.8445471091554763e-01 6.0877891293853792e-01  5.2738924824405553e-01 1.8636576599785412e-01 6.1221812364631933e-01  5.2843903210067289e-01 1.8828227235833614e-01 6.1548157377601165e-01  5.2945286723145046e-01 1.9019217908368688e-01 6.1856721292805383e-01  5.3044065676303775e-01 1.9211026628584379e-01 6.2151071994276608e-01  5.3139838418586127e-01 1.9402335611708216e-01 6.2430582531876877e-01  5.3232001011120655e-01 1.9591470266842342e-01 6.2693964386810597e-01  5.3322341504602977e-01 1.9781747811951206e-01 6.2946791924208878e-01  5.3409689143059924e-01 1.9970267871209763e-01 6.3186231151763272e-01  5.3493221620554776e-01 2.0154815240774518e-01 6.3410404613253135e-01  5.3574557790832789e-01 2.0338600543017640e-01 6.3624326170921686e-01  5.3653329512998860e-01 2.0520355454699693e-01 6.3827221870953588e-01  5.3729653686511503e-01 2.0700138048300265e-01 6.4019837996866980e-01  5.3803478129211568e-01 2.0877495406723220e-01 6.4202346745327421e-01  5.3875104640403093e-01 2.1052838046436048e-01 6.4375822665288140e-01  5.3944612421112204e-01 2.1226140640183100e-01 6.4540744822967011e-01  5.4011424234107663e-01 2.1395640207889022e-01 6.4696083462783982e-01  5.4076248031249874e-01 2.1562919867973374e-01 6.4843724008098225e-01  5.4139323356671309e-01 2.1728308935787261e-01 6.4984550489310544e-01  5.4199686408138337e-01 2.1889116715643434e-01 6.5116569983418737e-01  5.4258588125236895e-01 2.2048430514871825e-01 6.5242835299316404e-01  5.4315553179940412e-01 2.2204759348385630e-01 6.5362484291566703e-01  5.4370510017426288e-01 2.2357717507622377e-01 6.5475634767112278e-01  5.4423675088290202e-01 2.2507730163623355e-01 6.5582907529169676e-01  5.4475058847546287e-01 2.2654639439639368e-01 6.5684532469138979e-01  5.4524872948708492e-01 2.2798899695513716e-01 6.5781100707557150e-01  5.4573350322597525e-01 2.2941042324706304e-01 6.5873213266441832e-01  5.4619579333185864e-01 2.3078205480499886e-01 6.5959340718914206e-01  5.4664075900744347e-01 2.3211768236137867e-01 6.6040621547808298e-01  5.4707899576689878e-01 2.3344795559775883e-01 6.6119107777138741e-01  5.4749743510342674e-01 2.3473192481171659e-01 6.6192600924771194e-01  5.4789779399474670e-01 2.3597342855627021e-01 6.6261567598541482e-01  5.4828652819188040e-01 2.3719104464936097e-01 6.6327257749709367e-01  5.4866022028916250e-01 2.3837292919680897e-01 6.6389209194169452e-01  5.4902258719132324e-01 2.3952999403582345e-01 6.6448159188916489e-01  5.4936639552012523e-01 2.4063761829814156e-01 6.6503045203954214e-01  5.4970034813381752e-01 2.4172312620328368e-01 6.6555388071117338e-01  5.5001950186410031e-01 2.4276928276576731e-01 6.6604503221969436e-01  5.5032735828767732e-01 2.4378667204561522e-01 6.6651014521636331e-01  5.5062513142223957e-01 2.4477844948028851e-01 6.6695210441139463e-01  5.5090564038215795e-01 2.4571988840167661e-01 6.6736139968662578e-01  5.5117287736463516e-01 2.4662333825955102e-01 6.6774447598996267e-01  5.5143306680117188e-01 2.4750902498501651e-01 6.6811129349604681e-01  5.5167831565986802e-01 2.4834947391035420e-01 6.6845132256320872e-01  5.5191001145791929e-01 2.4914853259581837e-01 6.6876755398294752e-01  5.5213170834789471e-01 2.4991776967149507e-01 6.6906527102025626e-01  5.5234306946555567e-01 2.5065526577364916e-01 6.6934502788799455e-01  5.5254066998026086e-01 2.5134861516539947e-01 6.6960257942607548e-01  5.4878989951404122e-01 2.3878522117379486e-01 6.6410483475313775e-01  4.9452746596365005e-01 1.6408079717101395e-01 4.7285069278158948e-01  5.5322067223777149e-01 2.5377570747544864e-01 6.7045344723801670e-01  5.1424739774351746e-01 1.6774989163229503e-01 5.6556304882992603e-01  5.5257719273498906e-01 2.5147647670652468e-01 6.6965043955548531e-01  4.9513780665678220e-01 1.6810677964459328e-01 4.7450946002882394e-01  5.4982437210327240e-01 2.4215612476159840e-01 6.6573089157814325e-01  5.4163976370858768e-01 2.1797878513292243e-01 6.5037095733647388e-01  5.7597743597477080e-01 3.9450256800116695e-01 6.4772518089448250e-01  4.9631945196030319e-01 1.6263215317570764e-01 4.8273659709007483e-01  5.4493364230448849e-01 2.2707417396051441e-01 6.5720265036723713e-01  5.0028251484658059e-01 1.6284096074691384e-01 5.0274767877909299e-01  4.8880646735421990e-01 1.7609251769330750e-01 4.3674584968220048e-01  5.4165621551949217e-01 2.1798022275074491e-01 6.5042443135094952e-01  5.1039851537665848e-01 1.6438008947406205e-01 5.4981374059497434e-01  5.5394032893071565e-01 2.5637468586065204e-01 6.7131537195700164e-01  5.4763948802667661e-01 2.3948392497262830e-01 6.6038052424821436e-01  5.7401608857377528e-01 3.7075124787161984e-01 6.5898699364813895e-01  5.5422211491812534e-01 2.5740392100958981e-01 6.7164045441461040e-01  5.3690267470536668e-01 2.0606912606329877e-01 6.3920939556151501e-01  5.2165962899907081e-01 1.7708035554608836e-01 5.9317763349256847e-01  5.3084814687531545e-01 1.9291598324355555e-01 6.2270957650248304e-01  5.5415364481168661e-01 2.5715057480169418e-01 6.7156359337977944e-01  5.7701663937190062e-01 4.1699938056090968e-01 6.3442766834403053e-01  5.3073195902762549e-01 1.9274220237597670e-01 6.2234885237342397e-01  5.2564720604431414e-01 1.8332495662171536e-01 6.0665060085826295e-01  5.5381496953314957e-01 2.5590999899726519e-01 6.7117378573053044e-01  5.5071031577052887e-01 2.4506275904881600e-01 6.6707800075344170e-01  5.0245573656155440e-01 1.6071265456500919e-01 5.1409693973754733e-01  5.4846265955702400e-01 2.4333657263704664e-01 6.6125292902816135e-01  5.4706435936327746e-01 2.3343795842941908e-01 6.6114753345058963e-01  5.5206767066571205e-01 2.4971410611938677e-01 6.6896903815176834e-01  5.7715866749009881e-01 4.2421129356716886e-01 6.2959374306629146e-01  5.3573586550845942e-01 2.0341520900153562e-01 6.3619773534359148e-01  5.2092354563329446e-01 1.7594863848177419e-01 5.9060576769898510e-01  5.5337929489350646e-01 2.5433227956761267e-01 6.7065470002273575e-01  4.8697065518548588e-01 1.8452869772284389e-01 4.2243085741089720e-01  4.9187421265781706e-01 1.6806427622012496e-01 4.5710598715958012e-01  5.5174113773031075e-01 2.4856501185958993e-01 6.6853817195267451e-01  5.4721861333993049e-01 2.3387370381730682e-01 6.6143908501973669e-01  5.0855893694200238e-01 1.6300975378664309e-01 5.4196720080139027e-01  5.6998750590218095e-01 3.3874152845440253e-01 6.6944295929107411e-01  5.4471324687225153e-01 2.2647937625309447e-01 6.5675221405003492e-01  5.5410291705479953e-01 2.5696782469722002e-01 6.7150380183536951e-01  5.4854921140924795e-01 2.3805151408927933e-01 6.6369312489655696e-01  5.7697681114169641e-01 4.1575621768179510e-01 6.3521613567893231e-01  5.1761940156166464e-01 1.7740447889284205e-01 5.7693283554783792e-01  5.3891267897751660e-01 2.1097579025727772e-01 6.4412567371200646e-01  5.0215481706017195e-01 1.6080447216139038e-01 5.1261219314699369e-01  5.4980825776006281e-01 2.4207539240307702e-01 6.6572130675927266e-01  5.5267447254677626e-01 2.5183551030537360e-01 6.6976646597061951e-01  5.3974452242065385e-01 2.1301414556814888e-01 6.4610592347755591e-01  5.6415278540671132e-01 3.0448633900963762e-01 6.7455808005014628e-01  5.3450597472860406e-01 2.0060043720112852e-01 6.3296716092986904e-01  4.9823430962942444e-01 1.6135186031545753e-01 4.9298674569451967e-01  5.5119493515515949e-01 2.4672058226200858e-01 6.6776347030263916e-01  5.4336900012