<?xml version="1.0"?>
<VTKFile type="UnstructuredGrid"  version="0.1"  >
<UnstructuredGrid>
<Piece  NumberOfPoints="4940" NumberOfCells="9650">
<Points>
<DataArray  type="Float64"  NumberOfComponents="3"  format="ascii">500 250 0  0 250 0  250 500 0  250 0 0  256.8885856082646 499.9050767557906 0  263.7719401218049 499.6203791065173 0  270.6448364229772 499.1461232471188 0  277.5020553257866 498.4826693209355 0  284.3383895508592 497.6305211460281 0  291.1486476865662 496.5903258312597 0  297.9276581259182 495.3628732847843 0  304.6702729675493 493.9490956196674 0  311.3713719748657 492.3500664368026 0  318.0258664141369 490.5670000199653 0  324.6287029687753 488.6012504015818 0  331.1748675330201 486.4543103455647 0  337.6593890460416 484.1278102064655 0  344.0773432429536 481.6235166997244 0  350.4238564271474 478.9433315480048 0  356.694109139292 476.0892900492477 0  362.88333985546 473.0635595140469 0  368.9868485575419 469.8684376402048 0  375.0000003153078 466.5063507640667 0  380.9182288257928 462.9798520074548 0  386.7370398729688 459.2916193419558 0  392.4520147244077 455.444453565817 0  398.0588135356345 451.4412761437442 0  403.5531785622926 447.285127045646 0  408.9309374414144 442.9791624087773 0  414.1880064015299 438.5266521049243 0  419.3203932989752 433.9309773069245 0  424.324200661095 429.1956279150535 0  429.1956286596235 424.3241998957182 0  433.9309780058756 419.3203925397119 0  438.5266527445345 414.1880056671062 0  442.9791630130591 408.9309367076756 0  447.2851276060475 403.5531778422888 0  451.4412766621026 398.0588128303826 0  455.4444540361634 392.4520140460735 0  459.2916197786263 386.7370392045948 0  462.9798524073514 380.9182281752347 0  466.5063511234856 374.9999996927758 0  469.8684379657123 368.9868479560565 0  473.0635598144817 362.8833392617846 0  476.0892903190255 356.6941085676214 0  478.9433317963513 350.4238558609745 0  481.6235169154735 344.0773427117675 0  484.12781039012 337.6593885555221 0  486.4543105028062 331.1748670749914 0  488.601250531677 324.6287025528375 0  490.5670001317469 318.0258660188321 0  492.3500665291326 311.3713716102628 0  493.949095695951 304.6702726271575 0  495.3628733416623 297.9276578347343 0  496.5903258712341 291.1486474470129 0  497.6305211749058 284.3383893426084 0  498.4826693388848 277.502055163614 0  499.1461232580606 270.6448362909296 0  499.6203791109319 263.7719400417897 0  499.9050767571306 256.8885855596534 0  499.9050767559877 243.1114143988867 0  499.6203791069493 236.2280598860241 0  499.1461232485393 229.3551635941651 0  498.4826693235677 222.4979446979962 0  497.6305211491849 215.6616104719064 0  496.5903258357701 208.8513523404629 0  495.3628732906988 202.0723419043604 0  493.9490956264813 195.3297270628552 0  492.3500664487791 188.6286280724281 0  490.5670000344809 181.9741336371959 0  488.6012504175981 175.3712970824318 0  486.4543103623226 168.8251325157939 0  484.1278102222298 162.3406109960628 0  481.6235167152198 155.9226567951971 0  478.9433315621651 149.5761436051346 0  476.0892900516498 143.3058908657982 0  473.063559513628 137.1166601437124 0  469.8684376406648 131.0131514433083 0  466.5063507675389 124.9999996907064 0  462.9798520124137 119.0817711822745 0  459.2916193464549 113.2629601339176 0  455.4444535642773 107.5479852733717 0  451.4412761528674 101.9411864767781 0  447.2851270583545 96.44682145403524 0  442.9791624165781 91.06906256805769 0  438.5266521117469 85.81199360630404 0  433.9309773156125 80.67960671046254 0  429.1956279150353 75.67579933888632 0  424.3241998888952 70.80437133373906 0  419.3203925223282 66.06902197812161 0  414.1880056411937 61.47334723289828 0  408.9309366751728 57.0208369601728 0  403.5531778009394 52.71487236176898 0  398.058812796452 48.55872331295853 0  392.4520140187753 44.55554594490843 0  386.7370391799677 40.70838020528396 0  380.9182281475119 37.02014757560744 0  374.9999996718656 33.49364886444181 0  368.9868479340393 30.13156202237255 0  362.8833392380029 26.93644017348339 0  356.6941085456942 23.91070967062674 0  350.4238558420009 21.0566681953261 0  344.0773426899492 18.37648307566465 0  337.6593885328982 15.87218960140942 0  331.1748670549786 13.54568949032341 0  324.6287025315056 11.39874946165088 0  318.0258660010876 9.432999863235466 0  311.3713716017894 7.649933468721599 0  304.6702726190621 6.050904302234756 0  297.9276578269805 4.637126656823085 0  291.148647441857 3.409674127905504 0  284.3383893425031 2.369478825079682 0  277.502055159398 1.517330660648639 0  270.6448362875833 0.853876741662134 0  263.7719400401456 0.3796208889774277 0  256.8885855592052 0.09492324285704967 0  243.1114143979462 0.09492324403817065 0  236.2280598850882 0.3796208931023841 0  229.3551635938215 0.8538767514891958 0  222.4979446968584 1.517330676558146 0  215.6616104703111 2.369478851036291 0  208.8513523382973 3.409674164591252 0  202.0723419066374 4.637126708856528 0  195.3297270659513 6.050904372824903 0  188.628628074828 7.649933550613184 0  181.9741336377093 9.432999965373938 0  175.3712970793675 11.39874958336037 0  168.8251325057572 13.54568964112298 0  162.340610986655 15.87218978129263 0  155.9226567874317 18.37648328793418 0  149.576143602509 21.05666843898663 0  143.3058908718157 23.91070994551046 0  137.1166601505524 26.93644048291054 0  131.0131514451933 30.13156235831508 0  124.9999996848412 33.49364923584736 0  119.0817711715717 37.0201479941652 0  113.2629601211624 40.70838066187849 0  107.5479852622251 44.55554644345162 0  101.9411864693332 48.55872385260452 0  96.44682143286516 52.71487295812284 0  91.06906254351222 57.02083760363669 0  85.81199358272519 61.4733479087879 0  80.67960667988106 66.06902271253972 0  75.67579930062769 70.80437212218331 0  70.80437129287643 75.67580015310926 0  66.06902193673014 80.67960752263491 0  61.47334718684866 85.81199441168215 0  57.02083692524275 91.0690633672404 0  52.71487232786438 96.44682224262129 0  48.55872328070024 101.941187247437 0  44.55554591578033 107.5479860232332 0  40.7083801742321 113.2629608675606 0  37.02014754791168 119.0817718975441 0  33.49364883372994 125.000000381329 0  30.13156199866361 131.0131521097709 0  26.9364401549829 137.1166607985551 0  23.91070965524918 143.3058914868915 0  21.05666818346614 149.576144185037 0  18.37648306853811 155.9226573275967 0  15.8721895918909 162.3406114925245 0  13.54568948170046 168.8251329701392 0  11.39874945301878 175.3712974960928 0  9.432999857087736 181.9741340206533 0  7.649933466342702 188.6286284076045 0  6.050904301250966 195.3297273853278 0  4.637126656808988 202.0723421730917 0  3.409674127767772 208.8513525589684 0  2.369478824521138 215.6616106615248 0  1.517330660909465 222.4979448382452 0  0.8538767414496533 229.355163714981 0  0.3796208887135322 236.2280599646376 0  0.09492324266324204 243.1114144478261 0  0.0949232442452228 256.8885856095658 0  0.3796208935834784 263.7719401236316 0  0.8538767530323526 270.6448364248016 0  1.517330679476544 277.5020553295092 0  2.369478854618649 284.3383895555228 0  3.409674170191892 291.1486476952655 0  4.6371267162381 297.9276581311522 0  6.050904381420935 304.6702729724059 0  7.649933562385399 311.3713719716595 0  9.43299997979841 318.0258664133013 0  11.3987495994252 324.6287029719946 0  13.54568965885832 331.174867545904 0  15.87218979367188 337.6593890464085 0  18.37648329843151 344.0773432384132 0  21.05666844777872 350.423856417535 0  23.91070995156048 356.6941091410045 0  26.93644048988043 362.8833398632205 0  30.13156235982007 368.9868485575877 0  33.49364924138357 375.0000003247478 0  37.0201480006036 380.9182288389023 0  40.70838066758398 386.7370398875706 0  44.55554644477201 392.4520147396792 0  48.55872386086904 398.0588135419111 0  52.71487295981296 403.5531785693063 0  57.02083760525949 408.9309374584583 0  61.47334790862246 414.1880064170849 0  66.06902271205095 419.320393319588 0  70.80437211216579 424.3242006890749 0  75.67580013809859 429.195628692521 0  80.6796075127923 433.930978054209 0  85.81199439754931 438.5266528008431 0  91.06906334717917 442.9791630582355 0  96.44682221438322 447.2851276501571 0  101.9411872243843 451.441276702356 0  107.5479859945825 455.4444540643537 0  113.2629608446994 459.2916198108319 0  119.0817718768376 462.9798524393601 0  125.0000003647644 466.5063511567065 0  131.0131521012763 469.8684379967393 0  137.1166607840049 473.0635598376539 0  143.3058914748804 476.0892903390826 0  149.5761441732679 478.9433318113714 0  155.9226573130112 481.6235169255377 0  162.3406114779862 484.1278104026658 0  168.8251329570439 486.4543105138039 0  175.3712974805475 488.601250542119 0  181.9741340135204 490.5670001408953 0  188.6286284005059 492.3500665318597 0  195.3297273788229 493.9490956972913 0  202.0723421640089 495.3628733414168 0  208.8513525529672 496.5903258712308 0  215.6616106544547 497.6305211744985 0  222.4979448327038 498.4826693384772 0  229.3551637102845 499.1461232581612 0  236.2280599621369 499.6203791111485 0  243.1114144470173 499.9050767573145 0  155.2373389820306 474.8197567317462 0  25.36256300907667 153.9152755065208 0  432.3709625126712 412.6214396304305 0  6.013151705810699 246.637913163471 0  246.6379131630491 493.986848294322 0  338.6995838441862 22.68244767887072 0  477.3175523131281 338.6995838660569 0  493.9868482700757 246.6379131399102 0  246.6201155078769 6.218451882810491 0  417.6179310263282 72.7156044707053 0  102.2232990934413 445.0100869616822 0  63.66330858966404 92.20354579482142 0  391.3105220491464 50.73522820883105 0  72.79295043967942 418.0702734974704 0  448.290574428537 108.25674339002 0  402.4604651193511 440.7462829841712 0  97.55317348421397 59.11376320116034 0  136.7376477664901 33.58246472647134 0  363.3288394375288 465.6947312928271 0  44.0678766556007 381.0860953771871 0  469.6905266180034 142.3890690100806 0  22.68244791668644 338.6995843487432 0  338.699584349159 477.317552078365 0  173.389488083762 18.6681884918202 0  483.4809734778481 179.7121987795732 0  13.50237455842738 306.4709525540879 0  305.9825168523021 487.24416992
[...]
<PointData  Vectors="f_12"> 
<DataArray  type="Float64"  Name="f_12"  NumberOfComponents="3" format="ascii">6.2735821127421232e-01 3.7213213486011693e-01 8.3035497321423646e-01  4.6873508261726260e-01 2.5635238782314435e-01 2.1665800584396555e-01  6.4544658573776681e-01 4.9270056835162118e-01 7.4296661147660203e-01  4.7975039817157988e-01 3.8881040818414486e-01 1.9243856236958110e-01  6.4563767471932321e-01 4.9455704464314804e-01 7.4125521277526485e-01  6.4580763893803572e-01 4.9623438744491677e-01 7.3969960631285292e-01  6.4596881027388031e-01 4.9784582378983577e-01 7.3819739551109964e-01  6.4611274521745643e-01 4.9930385490241652e-01 7.3683174371992166e-01  6.4624385785108229e-01 5.0064882256820353e-01 7.3556642901845892e-01  6.4636225613957576e-01 5.0187680004907598e-01 7.3440637414102372e-01  6.4646849923906669e-01 5.0299001010992850e-01 7.3335104495131520e-01  6.4656381273717745e-01 5.0399820105466275e-01 7.3239212839151413e-01  6.4664768117063520e-01 5.0489311226328437e-01 7.3153834504741877e-01  6.4671982945566187e-01 5.0566893400430046e-01 7.3079642028944936e-01  6.4677433341326207e-01 5.0625998224150370e-01 7.3022981850815039e-01  6.4683198960628785e-01 5.0688529452898579e-01 7.2962953446667889e-01  6.4686121364997995e-01 5.0720635507753520e-01 7.2932059327344256e-01  6.4689120239437525e-01 5.0753413473010012e-01 7.2900512301897935e-01  6.4690835829706439e-01 5.0772231549323499e-01 7.2882381950124686e-01  6.4691655158079764e-01 5.0781121329480594e-01 7.2873815710721568e-01  6.4691693588374777e-01 5.0781298848959688e-01 7.2873619239339638e-01  6.4690076120114748e-01 5.0763451807106619e-01 7.2890805668247838e-01  6.4687344801994628e-01 5.0733426370351742e-01 7.2919722406258214e-01  6.4684338168943822e-01 5.0700237906139600e-01 7.2951631714744802e-01  6.4680197393533423e-01 5.0654770770328605e-01 7.2995317721300035e-01  6.4674549162009509e-01 5.0593334817508018e-01 7.3054232210502801e-01  6.4667246954206481e-01 5.0514545678690037e-01 7.3129628264101942e-01  6.4659674550039337e-01 5.0433204640488982e-01 7.3207285640226871e-01  6.4651003193120349e-01 5.0340824960640262e-01 7.3295235897571076e-01  6.4640243321756241e-01 5.0227497495804418e-01 7.3402790904035331e-01  6.4628857434285236e-01 5.0108679966060732e-01 7.3515170959355569e-01  6.4615902732199126e-01 4.9975148560672411e-01 7.3640933631385486e-01  6.4601470624399948e-01 4.9828148530217564e-01 7.3778821378593007e-01  6.4586013338956572e-01 4.9672639606636176e-01 7.3923982617248063e-01  6.4568075530440550e-01 4.9494976231667115e-01 7.4088909072527720e-01  6.4548695005485257e-01 4.9305779517419446e-01 7.4263578190700563e-01  6.4528364537041150e-01 4.9110126457613718e-01 7.4443061474083960e-01  6.4505312418999561e-01 4.8892194091411889e-01 7.4641612395941981e-01  6.4479272610285587e-01 4.8650627627133508e-01 7.4860066457257868e-01  6.4451712998515998e-01 4.8399449329223254e-01 7.5085370210820512e-01  6.4422690280432815e-01 4.8139672988437365e-01 7.5316376155199105e-01  6.4390281919417203e-01 4.7855452782571162e-01 7.5566750821380246e-01  6.4354269836381917e-01 4.7546039915627403e-01 7.5836567487631901e-01  6.4315765569500472e-01 4.7222272487972389e-01 7.6115767364670384e-01  6.4273461327288361e-01 4.6874524308987864e-01 7.6412042411598480e-01  6.4227516503338455e-01 4.6505189599811420e-01 7.6722605908048802e-01  6.4177789408242647e-01 4.6114723924076845e-01 7.7046309308776184e-01  6.4124153031173659e-01 4.5703455860313941e-01 7.7382260127797931e-01  6.4064046825939136e-01 4.5254423346046163e-01 7.7742603382040454e-01  6.3999368521160549e-01 4.4783038846356593e-01 7.8114253838488157e-01  6.3928997020835532e-01 4.4283977795076945e-01 7.8499632146526810e-01  6.3852210226236128e-01 4.3753348446125628e-01 7.8900747909897007e-01  6.3768918211116021e-01 4.3193704087192175e-01 7.9313506772812081e-01  6.3676598350601621e-01 4.2590723528447405e-01 7.9746635719701742e-01  6.3576211514450875e-01 4.1953880305119512e-01 8.0190569023609226e-01  6.3467352301260427e-01 4.1283522766161196e-01 8.0642762745039198e-01  6.3347271228251145e-01 4.0566446181365701e-01 8.1108771803289759e-01  6.3216245356638334e-01 3.9807903192952199e-01 8.1581951992462964e-01  6.3073849496568546e-01 3.9009098284340604e-01 8.2056334361539451e-01  6.2921152890869980e-01 3.8176774777537281e-01 8.2530578011360323e-01  6.2550596565711536e-01 3.6273974328008479e-01 8.3496570977727291e-01  6.2343474788579600e-01 3.5263874872272233e-01 8.3950609957881817e-01  6.2115937967169710e-01 3.4194728791125895e-01 8.4386257067352455e-01  6.1862261625468717e-01 3.3056642171127332e-01 8.4783293312793406e-01  6.1594831995976373e-01 3.1883561207896899e-01 8.5161286818673143e-01  6.1373683528251166e-01 3.0990066349426543e-01 8.5294423184272072e-01  6.0980371375117337e-01 2.8936893149289439e-01 8.5828067833977184e-01  5.7566236922325464e-01 1.8399088453436219e-01 8.3969830272929302e-01  5.0324083048949031e-01 9.7598010240792510e-02 5.3454872245874874e-01  4.7219289797003849e-01 1.8574447810522429e-01 2.9255304607326721e-01  5.2081778891932007e-01 4.9858506064958646e-01 3.4971005126759963e-01  5.8481499583708985e-01 5.3663272844596555e-01 5.8460761597508881e-01  5.7708785372295834e-01 3.6373899836734280e-01 7.4038917903577117e-01  5.2546866307114704e-01 3.3583866556327596e-01 5.2097843293482338e-01  4.7955985586675853e-01 3.0747437032075359e-01 2.5225979911742685e-01  4.6370349270767336e-01 1.4548124669244650e-01 2.5222848249087781e-01  4.7819759165967102e-01 8.6771927898497844e-02 3.7612772886271684e-01  4.9170944396161054e-01 7.8497505521390440e-02 4.6571516748948305e-01  4.8384140186692381e-01 8.1973460328192513e-02 4.1342357050125317e-01  4.7010156796294827e-01 9.2972945543386740e-02 3.1993039238212095e-01  4.6173983691275805e-01 1.1805672398964105e-01 2.5322955216677240e-01  4.6247204343931692e-01 1.4929850267371020e-01 2.4343800597907286e-01  4.8749751161466598e-01 1.5976015557084725e-01 4.1161182335404833e-01  5.5233511949341185e-01 2.5451507138336332e-01 7.3611732821256826e-01  5.8017163986670961e-01 5.4503947428371624e-01 5.5924729241420557e-01  5.1064962138269088e-01 5.0620888891974991e-01 2.8651441570689662e-01  4.6508189713644355e-01 1.8825972560742499e-01 2.3726484972323694e-01  4.6601959893400985e-01 9.1140912216228429e-02 2.9757197556587417e-01  4.6391943514601347e-01 1.0442934267095078e-01 2.7734258435474474e-01  4.6710666877426238e-01 2.4356746727410433e-01 2.1638035046265752e-01  5.0340148110115135e-01 5.3016551790395516e-01 2.2606818121200808e-01  5.5511745528573619e-01 7.1852887971682400e-01 2.7980084122513027e-01  5.9930409104555937e-01 7.4915054943333270e-01 3.6085797167059386e-01  6.3041299159953945e-01 6.9375274030099210e-01 4.8401395226365762e-01  6.4179337660790714e-01 5.7482373230137773e-01 6.4755917539543029e-01  6.2841770592852764e-01 4.0993004054798249e-01 8.0782738162302370e-01  5.9094636077704232e-01 2.3755893989933621e-01 8.5921098992339173e-01  5.4228570790084996e-01 1.2370075177752914e-01 7.3538510923394373e-01  5.0362307100174764e-01 8.4457920961301877e-02 5.4247322151647503e-01  4.8100022371338358e-01 8.1233888463215290e-02 4.0122171026396947e-01  4.6881491654805385e-01 9.3172823935986276e-02 3.1586616023130848e-01  4.6396620705421099e-01 1.0140274495764723e-01 2.8013188008907375e-01  4.6302774556244719e-01 1.0377705622544671e-01 2.7283661627525529e-01  4.6559888792480336e-01 9.6310442988657832e-02 2.9357248440433631e-01  4.7399492706049778e-01 8.5898439080108815e-02 3.5363393291777145e-01  4.9236932671862305e-01 8.1743420956542551e-02 4.7390167515582071e-01  5.2606016691045920e-01 1.0360701582826146e-01 6.6240450689018748e-01  5.7460307329489513e-01 1.9168137072715752e-01 8.3519454893625833e-01  6.1883390063261756e-01 3.6352043466549644e-01 8.3223794590194811e-01  6.3683636045102310e-01 5.4984087466387255e-01 6.7277253816236404e-01  6.2047530637451920e-01 6.8824198150631732e-01 4.7785850449176437e-01  5.7008136116426111e-01 7.2673269131878360e-01 3.1893279578514450e-01  5.0869332825864477e-01 5.6901279210404154e-01 2.2248333587867844e-01  4.6833852343997273e-01 2.8738291996228188e-01 1.9577574728267516e-01  4.5602619123571853e-01 1.5441130735299768e-01 1.9818971419429188e-01  4.5990277179304884e-01 1.9742709943105977e-01 1.9738095070155429e-01  5.1644775604084525e-01 6.0494094018624711e-01 2.2191014120271618e-01  5.5643151294465076e-01 7.3570371179390226e-01 2.6815381861525861e-01  5.7230274773500689e-01 6.9086074779264228e-01 3.6748153520624344e-01  5.2667115577033152e-01 4.8431464098861016e-01 4.0051105393644010e-01  4.7969750913132997e-01 1.9749923202476888e-01 3.3581773596699749e-01  5.0781702378529392e-01 1.3102968535380441e-01 5.6476882599710876e-01  5.8776408088260668e-01 3.3164112464938578e-01 8.0605069698754050e-01  5.9913286457322212e-01 6.4952381858582553e-01 4.8824296544087098e-01  5.3801996511697570e-01 6.8370110395542982e-01 2.5157979409777403e-01  4.8713295536461582e-01 4.8316979725598275e-01 1.7344798589187330e-01  4.7009010202249207e-01 3.3939090539059807e-01 1.6746120554312888e-01  4.6175000133654348e-01 2.2924640140717933e-01 1.8845449676958523e-01  4.6851016907778326e-01 1.3472841530819743e-01 2.9054117810246061e-01  5.0426562328236291e-01 9.4630357158940540e-02 5.3822576149690637e-01  5.3047794509481194e-01 1.0163401589661311e-01 6.8354908026627281e-01  4.9534017907721495e-01 8.7583071736388046e-02 4.8614699422325569e-01  4.6769607565642285e-01 1.0169517104889293e-01 3.0254373319293182e-01  4.5950247544616862e-01 1.6570975100873059e-01 2.1327099334300528e-01  4.7101887012957516e-01 3.2618978654365538e-01 1.8556440456580153e-01  5.1028647809006322e-01 5.8762276441866801e-01 2.1581223154169185e-01  5.6697520989302663e-01 7.2932138954703629e-01 3.0544809030934533e-01  6.1434889181565000e-01 7.1076591584064097e-01 4.3882543674635627e-01  6.3790781364493121e-01 6.1741756760807276e-01 5.9234391743993586e-01  6.3776600789713078e-01 4.9063661941958198e-01 7.3706042203333078e-01  6.1992735746979555e-01 3.5523057885997344e-01 8.3627605922987625e-01  5.9302838584565587e-01 2.4035910799207905e-01 8.5921676301001693e-01  5.6653912925128880e-01 1.6587066079470916e-01 8.1559996633378495e-01  5.4780888321324095e-01 1.2905094525083594e-01 7.5564175768985531e-01  5.3884142221278863e-01 1.1546910812103411e-01 7.1939961997789315e-01  5.3962868659211705e-01 1.1667939692034909e-01 7.2247529065921268e-01  5.4980388272441671e-01 1.3322573067475518e-01 7.6191357261907677e-01  5.6958674642286278e-01 1.7314150245221735e-01 8.2227703867338864e-01  5.9529753163106958e-01 2.4589479510579618e-01 8.6309712106053671e-01  6.2322793843754376e-01 3.5992754217636586e-01 8.4424516339638578e-01  6.4079906885872151e-01 4.9097874617637810e-01 7.3947349985057598e-01  6.4445320948893348e-01 6.0443970966931793e-01 6.1541849351195232e-01  6.3269017565738561e-01 6.9163068537957872e-01 4.8968130108721342e-01  6.0681351211982781e-01 7.4305759331136856e-01 3.8288205829887290e-01  5.6897385636820241e-01 7.4110544109348520e-01 2.9748061250623314e-01  5.2082383635616558e-01 6.2122788269974794e-01 2.3530573687117098e-01  4.7679151283691801e-01 3.5857257211883553e-01 2.0252387274792288e-01  4.5818181819495724e-01 1.5849484699447441e-01 2.0997982095119530e-01  4.5804249725764007e-01 1.1697477178926553e-01 2.3116667707327104e-01  4.5850551410794493e-01 1.4611599709105827e-01 2.1582252592187073e-01  4.5783983559775415e-01 1.8743207166186188e-01 1.8724225287221571e-01  4.6079595411287022e-01 2.4451807150625576e-01 1.7222302795617631e-01  4.8540188814391383e-01 4.4130460843790592e-01 1.9400489871519658e-01  5.5930041391238983e-01 6.5029538309184909e-01 3.6509210792879809e-01  5.9314609160034004e-01 4.4384803301441283e-01 7.1392265355551021e-01  5.3137250964051019e-01 1.8802295604477154e-01 6.7315121608338269e-01  4.8884095215897672e-01 2.4427195939115504e-01 3.6141936939474995e-01  4.7346279504823996e-01 3.1962160738815848e-01 2.0207880512613885e-01  4.6222995285749480e-01 2.3826973527046102e-01 1.8488705298029254e-01  4.5904685832313269e-01 1.5099293837747188e-01 2.1694399186255631e-01  4.6043346387071576e-01 1.1128057726487652e-01 2.4906374445529106e-01  4.5960355047015122e-01 1.3524757895263168e-01 2.3104210123091828e-01  5.0441403338257507e-01 3.2738545798399871e-01 3.9930755162572296e-01  5.5449933475643010e-01 3.0095494653979615e-01 7.0562745898964152e-01  5.8846295673213123e-01 4.9375188438610595e-01 6.4425593905995737e-01  5.3967144391261768e-01 5.6286541645047505e-01 3.8063259412970279e-01  4.7575623731999883e-01 2.6582112118317269e-01 2.6454130398439840e-01  4.8147416455380077e-01 9.6303689330808961e-02 3.9677348170596205e-01  5.3604975751569395e-01 1.1447793505232877e-01 7.0494537118737488e-01  5.7763381928563362e-01 1.8657890218853571e-01 8.3591130270883429e-01  5.8606505826444744e-01 2.1486816027938535e-01 8.4378944104988474e-01  5.8866478490046326e-01 2.2211996403554563e-01 8.4876964764436058e-01  5.9200357421299843e-01 2.3229064472490563e-01 8.5201517079367395e-01  5.9529478849007034e-01 2.4262913211560649e-01 8.5481060726686020e-01  5.9844160934341240e-01 2.5292453320900232e-01 8.5665927636166361e-01  6.0138451572914420e-01 2.6296601862662955e-01 8.5767230492145963e-01  6.0412570096923646e-01 2.7266854534989027e-01 8.5796750029675506e-01  6.0673535418695523e-01 2.8223834731690894e-01 8.5764478572047265e-01  6.0918324959797565e-01 2.9152398933387258e-01 8.5678941974779543e-01  6.1145559990935971e-01 3.0043244565691529e-01 8.5547491956524002e-01  6.1360639360201863e-01 3.0912869485561806e-01 8.5377733423724178e-01  6.1563457872003513e-01 3.1757919917452504e-01 8.5173169776493973e-01  6.1754625612587799e-01 3.2578031298490839e-01 8.4940237189917800e-01  6.1934539818068834e-01 3.3372208845551149e-01 8.4683108816978347e-01  6.2104658234268661e-01 3.4144136375557527e-01 8.4404563825057921e-01  6.2265565082489638e-01 3.4894387369871777e-01 8.4107815021705457e-01  6.2416267742048348e-01 3.5615839243954445e-01 8.3799155440846673e-01  6.2558914243293950e-01 3.6316849460274320e-01 8.3477575528654557e-01  6.2694440728656531e-01 3.6999712642778126e-01 8.3145153622551604e-01  6.2820858194227247e-01 3.7653197512505809e-01 8.2808927892814066e-01  6.2941319594989231e-01 3.8291439004758149e-01 8.2464428086732111e-01  6.3055193655828568e-01 3.8909634382164465e-01 8.2115496849430714e-01  6.3162484389855877e-01 3.9506302070278548e-01 8.1765141778156047e-01  6.3263855843009176e-01 4.0083770394712265e-01 8.1413356125934233e-01  6.3359598670261685e-01 4.0642206413730853e-01 8.1061577176362165e-01  6.3450292169484801e-01 4.1183792164952326e-01 8.0709707284019461e-01  6.3536576096695008e-01 4.1711189412538230e-01 8.0357072616138570e-01  6.3616989883483610e-01 4.2214152073690769e-01 8.0011791584057168e-01  6.3692620909402164e-01 4.2698220614610050e-01 7.9671231917047181e-01  6.3765505066575934e-01 4.3175315380821239e-01 7.9327793319166573e-01  6.3833508765589531e-01 4.3630674147850318e-01 7.8992922268807675e-01  6.3897058320795896e-01 4.4065981200586696e-01 7.8666367676879234e-01  6.3957426584684285e-01 4.4488632325451416e-01 7.8343356946440945e-01  6.4014192416201476e-01 4.4894819995310264e-01 7.8027426778800868e-01  6.4067999535477860e-01 4.5288374112352564e-01 7.7716322860606413e-01  6.4117957594727137e-01 4.5661616781970388e-01 7.7416610065508273e-01  6.4165384542118975e-01 4.6023621136328791e-01 7.7121796349758576e-01  6.4209690326986091e-01 4.6369004656546703e-01 7.6836656160536843e-01  6.4251536210797711e-01 4.6701959521070380e-01 7.6558161826791016e-01  6.4291174820064079e-01 4.7023723779448179e-01 7.6285801477531967e-01  6.4327631229156157e-01 4.7325890864423026e-01 7.6027242412802143e-01  6.4361589887756643e-01 4.7613017258959089e-01 7.5778827447791275e-01  6.4393983261845145e-01 4.7892026473485688e-01 7.5535079467599153e-01  6.4423849248675935e-01 4.8154261586131070e-01 7.5303805763987353e-01  6.4451441583850189e-01 4.8401087920574681e-01 7.5084272511887695e-01  6.4477312389068220e-01 4.8636619144693410e-01 7.4872988753726633e-01  6.4501488044042576e-01 4.8860391727583607e-01 7.4670806967408088e-01  6.4523607812638839e-01 4.9068695548671304e-01 7.4481172681728780e-01  6.4033372857639970e-01 4.5034794178360610e-01 7.7917341074481572e-01  4.5867788080466487e-01 1.5867951891877091e-01 2.1336864340666029e-01  6.4569165259356109e-01 4.9506650041068645e-01 7.4078175856989625e-01  4.6183547728350405e-01 1.8782623591504480e-01 2.1550228221412990e-01  6.4527338509363097e-01 4.9104911454766620e-01 7.4448114893196504e-01  4.6402169594722997e-01 1.5668450467909259e-01 2.4801723509798126e-01  6.4138220327226891e-01 4.5812002385716000e-01 7.7294040356750293e-01  6.2623638121176450e-01 3.6638390366730267e-01 8.3325008803998302e-01  4.9648436100188004e-01 5.1926409522228889e-01 1.9797978753216941e-01  4.6521113623616062e-01 1.9099734697323484e-01 2.3508986674963692e-01  6.3392709244171142e-01 4.0839048006225581e-01 8.0934817143747251e-01  5.2402208086993551e-01 1.1169650336898398e-01 6.4522148030946080e-01  6.3843021626582308e-01 5.7219565633844927e-01 6.5362984051370854e-01  6.2748864039514762e-01 3.7279576575526280e-01 8.3003312724657585e-01  4.7165577436548861e-01 1.5852152476444559e-01 3.0126526736830411e-01  6.4649491783532997e-01 5.0326070057562777e-01 7.3309276128124112e-01  6.0801003158692446e-01 3.2144873228212800e-01 8.4936466200673133e-01  4.6129624052510387e-01 1.4481394906558018e-01 2.3658934276243851e-01  6.4684418048109282e-01 5.0702316996609120e-01 7.2949737744299348e-01  6.1654562014863390e-01 3.2146498939600765e-01 8.5066723266875077e-01  4.6943552002943978e-01 1.0474532459767559e-01 3.1058464370980948e-01  5.9966318051649803e-01 2.5704557872666001e-01 8.5718894957715475e-01  6.4681938755829604e-01 5.0675772743152625e-01 7.2975194173606051e-01  4.6804737372664151e-01 3.0257693377196737e-01 1.8177316400615370e-01  5.0156606663636705e-01 4.1723470867715501e-01 3.1610516063330318e-01  5.7617025267544952e-01 1.8627985381039791e-01 8.3030660714159854e-01  6.4653195834231492e-01 5.0367035421565631e-01 7.3270426702727487e-01  6.4302120441813737e-01 4.7114480295036426e-01 7.6208557320614034e-01  5.8841779136857242e-01 5.7752506388550995e-01 5.4341876582382465e-01  6.1881917052492874e-01 3.8725637274378455e-01 8.1621571437855445e-01  6.3706513767193318e-01 4.2785299610217092e-01 7.9608456308936626e-01  6.4434285941643188e-01 4.8244207380169141e-01 7.5223623745853485e-01  5.5605796791249817e-01 2.1279246822009248e-01 7.7647165459390588e-01  6.0933784917384226e-01 2.8947959180562677e-01 8.5831069247313152e-01  5.1269168951575550e-01 4.7860560180743061e-01 3.2519534555491186e-01  6.4611579980048917e-01 4.9934462602023616e-01 7.3679338458135879e-01  5.0365430522842480e-01 9.6898163550245442e-02 5.3396593299446016e-01  6.2704563926152757e-01 6.7693490209219076e-01 5.0362635047931992e-01  6.4431145878313345e-01 4.8219895671007634e-01 7.5245638606745702e-01  6.3788088196634241e-01 4.3325628197472765e-01 7.9218363220299925e-01  4.6485897252129577e-01 2.6784462673879283e-01 1.8246425750117631e-01  4.9630661587479996e-01 4.8847934887523664e-01 2.1997010827543653e-01  6.3276291815321017e-01 4.0154256059279420e-01 8.1368279141655286e-01  6.4668501883926943e-01 5.0529621654815149e-01 7.3115245829323616e-01  6.3948003744357762e-01 4.4418853494026511e-01 7.8396452800099958e-01  5.5138086528206942e-01 5.8557862038239694e-01 4.1438403575812310e-01  4.9055487492138272e-01 9.3209205880530513e-02 4.5544161938872030e-01  6.1952263369063998e-01 3.3455725593033475e-01 8.4651333122496697e-01  4.7741699994918851e-01 3.1339746695207304e-01 2.3835890736492760e-01  6.4180251452799197e-01 4.6139597841473595e-01 7.7026369465392253e-01  6.4506467840938608e-01 4.8904363209613499e-01 7.4630700848215537e-01  6.2331640937420019e-01 3.5208872628503507e-01 8.3976269375552437e-01  6.0381826361684277e-01 6.9574379161811784e-01 4.3868181426712538e-01  6.1027778856133230e-01 2.9578029125843819e-01 8.5622789749743733e-01  4.5866231501613347e-01 2.0741523650886429e-01 1.8085342075543756e-01  6.4324721434591869e-01 4.7298173578718278e-01 7.6050659950207367e-01  6.3096421574