<?xml version="1.0"?>
<VTKFile type="UnstructuredGrid"  version="0.1"  >
<UnstructuredGrid>
<Piece  NumberOfPoints="4940" NumberOfCells="9650">
<Points>
<DataArray  type="Float64"  NumberOfComponents="3"  format="ascii">500 250 0  0 250 0  250 500 0  250 0 0  256.8885856082646 499.9050767557906 0  263.7719401218049 499.6203791065173 0  270.6448364229772 499.1461232471188 0  277.5020553257866 498.4826693209355 0  284.3383895508592 497.6305211460281 0  291.1486476865662 496.5903258312597 0  297.9276581259182 495.3628732847843 0  304.6702729675493 493.9490956196674 0  311.3713719748657 492.3500664368026 0  318.0258664141369 490.5670000199653 0  324.6287029687753 488.6012504015818 0  331.1748675330201 486.4543103455647 0  337.6593890460416 484.1278102064655 0  344.0773432429536 481.6235166997244 0  350.4238564271474 478.9433315480048 0  356.694109139292 476.0892900492477 0  362.88333985546 473.0635595140469 0  368.9868485575419 469.8684376402048 0  375.0000003153078 466.5063507640667 0  380.9182288257928 462.9798520074548 0  386.7370398729688 459.2916193419558 0  392.4520147244077 455.444453565817 0  398.0588135356345 451.4412761437442 0  403.5531785622926 447.285127045646 0  408.9309374414144 442.9791624087773 0  414.1880064015299 438.5266521049243 0  419.3203932989752 433.9309773069245 0  424.324200661095 429.1956279150535 0  429.1956286596235 424.3241998957182 0  433.9309780058756 419.3203925397119 0  438.5266527445345 414.1880056671062 0  442.9791630130591 408.9309367076756 0  447.2851276060475 403.5531778422888 0  451.4412766621026 398.0588128303826 0  455.4444540361634 392.4520140460735 0  459.2916197786263 386.7370392045948 0  462.9798524073514 380.9182281752347 0  466.5063511234856 374.9999996927758 0  469.8684379657123 368.9868479560565 0  473.0635598144817 362.8833392617846 0  476.0892903190255 356.6941085676214 0  478.9433317963513 350.4238558609745 0  481.6235169154735 344.0773427117675 0  484.12781039012 337.6593885555221 0  486.4543105028062 331.1748670749914 0  488.601250531677 324.6287025528375 0  490.5670001317469 318.0258660188321 0  492.3500665291326 311.3713716102628 0  493.949095695951 304.6702726271575 0  495.3628733416623 297.9276578347343 0  496.5903258712341 291.1486474470129 0  497.6305211749058 284.3383893426084 0  498.4826693388848 277.502055163614 0  499.1461232580606 270.6448362909296 0  499.6203791109319 263.7719400417897 0  499.9050767571306 256.8885855596534 0  499.9050767559877 243.1114143988867 0  499.6203791069493 236.2280598860241 0  499.1461232485393 229.3551635941651 0  498.4826693235677 222.4979446979962 0  497.6305211491849 215.6616104719064 0  496.5903258357701 208.8513523404629 0  495.3628732906988 202.0723419043604 0  493.9490956264813 195.3297270628552 0  492.3500664487791 188.6286280724281 0  490.5670000344809 181.9741336371959 0  488.6012504175981 175.3712970824318 0  486.4543103623226 168.8251325157939 0  484.1278102222298 162.3406109960628 0  481.6235167152198 155.9226567951971 0  478.9433315621651 149.5761436051346 0  476.0892900516498 143.3058908657982 0  473.063559513628 137.1166601437124 0  469.8684376406648 131.0131514433083 0  466.5063507675389 124.9999996907064 0  462.9798520124137 119.0817711822745 0  459.2916193464549 113.2629601339176 0  455.4444535642773 107.5479852733717 0  451.4412761528674 101.9411864767781 0  447.2851270583545 96.44682145403524 0  442.9791624165781 91.06906256805769 0  438.5266521117469 85.81199360630404 0  433.9309773156125 80.67960671046254 0  429.1956279150353 75.67579933888632 0  424.3241998888952 70.80437133373906 0  419.3203925223282 66.06902197812161 0  414.1880056411937 61.47334723289828 0  408.9309366751728 57.0208369601728 0  403.5531778009394 52.71487236176898 0  398.058812796452 48.55872331295853 0  392.4520140187753 44.55554594490843 0  386.7370391799677 40.70838020528396 0  380.9182281475119 37.02014757560744 0  374.9999996718656 33.49364886444181 0  368.9868479340393 30.13156202237255 0  362.8833392380029 26.93644017348339 0  356.6941085456942 23.91070967062674 0  350.4238558420009 21.0566681953261 0  344.0773426899492 18.37648307566465 0  337.6593885328982 15.87218960140942 0  331.1748670549786 13.54568949032341 0  324.6287025315056 11.39874946165088 0  318.0258660010876 9.432999863235466 0  311.3713716017894 7.649933468721599 0  304.6702726190621 6.050904302234756 0  297.9276578269805 4.637126656823085 0  291.148647441857 3.409674127905504 0  284.3383893425031 2.369478825079682 0  277.502055159398 1.517330660648639 0  270.6448362875833 0.853876741662134 0  263.7719400401456 0.3796208889774277 0  256.8885855592052 0.09492324285704967 0  243.1114143979462 0.09492324403817065 0  236.2280598850882 0.3796208931023841 0  229.3551635938215 0.8538767514891958 0  222.4979446968584 1.517330676558146 0  215.6616104703111 2.369478851036291 0  208.8513523382973 3.409674164591252 0  202.0723419066374 4.637126708856528 0  195.3297270659513 6.050904372824903 0  188.628628074828 7.649933550613184 0  181.9741336377093 9.432999965373938 0  175.3712970793675 11.39874958336037 0  168.8251325057572 13.54568964112298 0  162.340610986655 15.87218978129263 0  155.9226567874317 18.37648328793418 0  149.576143602509 21.05666843898663 0  143.3058908718157 23.91070994551046 0  137.1166601505524 26.93644048291054 0  131.0131514451933 30.13156235831508 0  124.9999996848412 33.49364923584736 0  119.0817711715717 37.0201479941652 0  113.2629601211624 40.70838066187849 0  107.5479852622251 44.55554644345162 0  101.9411864693332 48.55872385260452 0  96.44682143286516 52.71487295812284 0  91.06906254351222 57.02083760363669 0  85.81199358272519 61.4733479087879 0  80.67960667988106 66.06902271253972 0  75.67579930062769 70.80437212218331 0  70.80437129287643 75.67580015310926 0  66.06902193673014 80.67960752263491 0  61.47334718684866 85.81199441168215 0  57.02083692524275 91.0690633672404 0  52.71487232786438 96.44682224262129 0  48.55872328070024 101.941187247437 0  44.55554591578033 107.5479860232332 0  40.7083801742321 113.2629608675606 0  37.02014754791168 119.0817718975441 0  33.49364883372994 125.000000381329 0  30.13156199866361 131.0131521097709 0  26.9364401549829 137.1166607985551 0  23.91070965524918 143.3058914868915 0  21.05666818346614 149.576144185037 0  18.37648306853811 155.9226573275967 0  15.8721895918909 162.3406114925245 0  13.54568948170046 168.8251329701392 0  11.39874945301878 175.3712974960928 0  9.432999857087736 181.9741340206533 0  7.649933466342702 188.6286284076045 0  6.050904301250966 195.3297273853278 0  4.637126656808988 202.0723421730917 0  3.409674127767772 208.8513525589684 0  2.369478824521138 215.6616106615248 0  1.517330660909465 222.4979448382452 0  0.8538767414496533 229.355163714981 0  0.3796208887135322 236.2280599646376 0  0.09492324266324204 243.1114144478261 0  0.0949232442452228 256.8885856095658 0  0.3796208935834784 263.7719401236316 0  0.8538767530323526 270.6448364248016 0  1.517330679476544 277.5020553295092 0  2.369478854618649 284.3383895555228 0  3.409674170191892 291.1486476952655 0  4.6371267162381 297.9276581311522 0  6.050904381420935 304.6702729724059 0  7.649933562385399 311.3713719716595 0  9.43299997979841 318.0258664133013 0  11.3987495994252 324.6287029719946 0  13.54568965885832 331.174867545904 0  15.87218979367188 337.6593890464085 0  18.37648329843151 344.0773432384132 0  21.05666844777872 350.423856417535 0  23.91070995156048 356.6941091410045 0  26.93644048988043 362.8833398632205 0  30.13156235982007 368.9868485575877 0  33.49364924138357 375.0000003247478 0  37.0201480006036 380.9182288389023 0  40.70838066758398 386.7370398875706 0  44.55554644477201 392.4520147396792 0  48.55872386086904 398.0588135419111 0  52.71487295981296 403.5531785693063 0  57.02083760525949 408.9309374584583 0  61.47334790862246 414.1880064170849 0  66.06902271205095 419.320393319588 0  70.80437211216579 424.3242006890749 0  75.67580013809859 429.195628692521 0  80.6796075127923 433.930978054209 0  85.81199439754931 438.5266528008431 0  91.06906334717917 442.9791630582355 0  96.44682221438322 447.2851276501571 0  101.9411872243843 451.441276702356 0  107.5479859945825 455.4444540643537 0  113.2629608446994 459.2916198108319 0  119.0817718768376 462.9798524393601 0  125.0000003647644 466.5063511567065 0  131.0131521012763 469.8684379967393 0  137.1166607840049 473.0635598376539 0  143.3058914748804 476.0892903390826 0  149.5761441732679 478.9433318113714 0  155.9226573130112 481.6235169255377 0  162.3406114779862 484.1278104026658 0  168.8251329570439 486.4543105138039 0  175.3712974805475 488.601250542119 0  181.9741340135204 490.5670001408953 0  188.6286284005059 492.3500665318597 0  195.3297273788229 493.9490956972913 0  202.0723421640089 495.3628733414168 0  208.8513525529672 496.5903258712308 0  215.6616106544547 497.6305211744985 0  222.4979448327038 498.4826693384772 0  229.3551637102845 499.1461232581612 0  236.2280599621369 499.6203791111485 0  243.1114144470173 499.9050767573145 0  155.2373389820306 474.8197567317462 0  25.36256300907667 153.9152755065208 0  432.3709625126712 412.6214396304305 0  6.013151705810699 246.637913163471 0  246.6379131630491 493.986848294322 0  338.6995838441862 22.68244767887072 0  477.3175523131281 338.6995838660569 0  493.9868482700757 246.6379131399102 0  246.6201155078769 6.218451882810491 0  417.6179310263282 72.7156044707053 0  102.2232990934413 445.0100869616822 0  63.66330858966404 92.20354579482142 0  391.3105220491464 50.73522820883105 0  72.79295043967942 418.0702734974704 0  448.290574428537 108.25674339002 0  402.4604651193511 440.7462829841712 0  97.55317348421397 59.11376320116034 0  136.7376477664901 33.58246472647134 0  363.3288394375288 465.6947312928271 0  44.0678766556007 381.0860953771871 0  469.6905266180034 142.3890690100806 0  22.68244791668644 338.6995843487432 0  338.699584349159 477.317552078365 0  173.389488083762 18.6681884918202 0  483.4809734778481 179.7121987795732 0  13.50237455842738 306.4709525540879 0  305.9825168523021 487.24416992
[...]
<PointData  Vectors="f_12"> 
<DataArray  type="Float64"  Name="f_12"  NumberOfComponents="3" format="ascii">5.3903012477413503e-01 2.9239255137303560e-01 6.3190282528222541e-01  5.3427943205778339e-01 1.3795745097057652e-01 7.0286598501827779e-01  5.3273651501922781e-01 6.9100473043795929e-01 2.1306953273736640e-01  4.6038246665233584e-01 1.4070958071193457e-01 2.3358698226881569e-01  5.3217558063837633e-01 6.8928729110999620e-01 2.1237134067925770e-01  5.3166802341325692e-01 6.8771459404318269e-01 2.1174287276259490e-01  5.3118267051115042e-01 6.8619536381370538e-01 2.1114435856330693e-01  5.3074340224617234e-01 6.8480729120093353e-01 2.1060494455587558e-01  5.3033919317425871e-01 6.8351856220779650e-01 2.1011074065569108e-01  5.2997113533924800e-01 6.8233575647810318e-01 2.0966204902945204e-01  5.2963859255631884e-01 6.8125955540929395e-01 2.0925798264735626e-01  5.2933891913231812e-01 6.8028348325002597e-01 2.0889486884823594e-01  5.2907437364790078e-01 6.7941680356476553e-01 2.0857505737518761e-01  5.2884661506003672e-01 6.7866701407541408e-01 2.0830047296661708e-01  5.2867372440853433e-01 6.7809511902103159e-01 2.0809257629881631e-01  5.2849527575736543e-01 6.7750378478518858e-01 2.0787770651827198e-01  5.2840490869821355e-01 6.7720272648251467e-01 2.0776948314984323e-01  5.2831664941577816e-01 6.7690899367881141e-01 2.0766341059090587e-01  5.2827091404054061e-01 6.7675656478020563e-01 2.0760852600392754e-01  5.2825670814812686e-01 6.7670955265462474e-01 2.0759127036335545e-01  5.2827079137276656e-01 6.7675711874218758e-01 2.0760742991221995e-01  5.2833888245614113e-01 6.7698443811490994e-01 2.0768899102631580e-01  5.2844475178833306e-01 6.7733734493831377e-01 2.0781608532740939e-01  5.2856382457407181e-01 6.7773375381800105e-01 2.0795841717818608e-01  5.2872126103083328e-01 6.7825642562001953e-01 2.0814711713707360e-01  5.2892749075280332e-01 6.7893770646845641e-01 2.0839522049271808e-01  5.2918625446911283e-01 6.7978832556261914e-01 2.0870737833313732e-01  5.2945689910713056e-01 6.8067392546810068e-01 2.0903412834944787e-01  5.2976313169847000e-01 6.8166989959694568e-01 2.0940482688548900e-01  5.3013227753756198e-01 6.8286170725139528e-01 2.0985357504425420e-01  5.3052184538291514e-01 6.8411022764512408e-01 2.1032857884801917e-01  5.3095767811410743e-01 6.8549435589299423e-01 2.1086215677473316e-01  5.3143625069585299e-01 6.8700043623872153e-01 2.1145068291269714e-01  5.3194417021688301e-01 6.8858267876893198e-01 2.1207763489727358e-01  5.3251947271583033e-01 6.9035335927907870e-01 2.1279176707014402e-01  5.3313283580752246e-01 6.9221837382417439e-01 2.1355741799963554e-01  5.3377072800865255e-01 6.9413278661255828e-01 2.1435713115680199e-01  5.3447701305979112e-01 6.9622078856238723e-01 2.1524873385367951e-01  5.3525552915280139e-01 6.9848469842570848e-01 2.1623927286038652e-01  5.3606781508668055e-01 7.0080663676157073e-01 2.1727951232542475e-01  5.3691176323077605e-01 7.0317544220093386e-01 2.1836769269918962e-01  5.3783127248187990e-01 7.0570413115814445e-01 2.1956357311185465e-01  5.3882830935691162e-01 7.0838740351087670e-01 2.2087125106383726e-01  5.3987381859617400e-01 7.1113527916169239e-01 2.2225524669619515e-01  5.4099469924123800e-01 7.1400520385920152e-01 2.2375423736272931e-01  5.4218367036213244e-01 7.1696470644531285e-01 2.2536117570684408e-01  5.4343964349792195e-01 7.2000772275817515e-01 2.2707630342475688e-01  5.4477810188888431e-01 7.2314706275268192e-01 2.2891091387731768e-01  5.4622739964820644e-01 7.2638449849551978e-01 2.3094010452705419e-01  5.4765931717969130e-01 7.2939182203800268e-01 2.3314576026719722e-01  5.4898015210060891e-01 7.3213678046882313e-01 2.3511865983082461e-01  5.5009867449392358e-01 7.3599054713867906e-01 2.3481294962798904e-01  5.5693319375487849e-01 7.5434914220618676e-01 2.4161045916001234e-01  5.8300474734398289e-01 7.7046836823639320e-01 2.9719465853932503e-01  6.2187687498287469e-01 6.8552026658722010e-01 4.8015898404395613e-01  6.0581765166746593e-01 3.7919201261156354e-01 8.1115376270464534e-01  5.1853321319544821e-01 1.3976566545488384e-01 6.2435855255956896e-01  4.7786664008468271e-01 1.9688680185700044e-01 3.2264767513560544e-01  5.0142937902344809e-01 4.6316250700598915e-01 2.7094583730409083e-01  5.5474236412695166e-01 5.8425694877517531e-01 4.3094384873977026e-01  5.4431283628401261e-01 1.6419717988744004e-01 7.3755828400952128e-01  6.0511672152015317e-01 3.0627478917284684e-01 8.5573251961729391e-01  6.4290508548758285e-01 5.2274590634719353e-01 7.1412224871725938e-01  6.5072337468864994e-01 6.1690927847039112e-01 6.0212714583249649e-01  6.4184918893286125e-01 5.1420691204024604e-01 7.2115289443222741e-01  6.1755918015696476e-01 3.4681793573245534e-01 8.4177572900823827e-01  5.7910408763619003e-01 2.0189380004652108e-01 8.4078817103110537e-01  5.3390114617576734e-01 1.1572599857599705e-01 6.9506093694858373e-01  5.0122571521250225e-01 9.8156583685631599e-02 5.2685861320165073e-01  5.2062599736898207e-01 1.9710256428199094e-01 6.0729434952360872e-01  5.5214400032715216e-01 4.7525687868728544e-01 5.2702920333570680e-01  5.0275011846755913e-01 5.0286718388724394e-01 2.3668207647743000e-01  4.9073739241291114e-01 4.7747460936367819e-01 1.9626084632851876e-01  5.5892268332745032e-01 5.4544999093712743e-01 4.7987763215436158e-01  5.9251854936764581e-01 3.6862886576903925e-01 7.7583770344350445e-01  6.0932818309891301e-01 3.2937546342530893e-01 8.3884331509291343e-01  6.2905093349369878e-01 3.9267123713196073e-01 8.1760292717554572e-01  6.4166116568459286e-01 4.6151417041193032e-01 7.6931740792785941e-01  6.4525278684494169e-01 4.8577413852192874e-01 7.4826978058395577e-01  6.3961964035299657e-01 4.4781467193856833e-01 7.8074787804561807e-01  6.3155244227887763e-01 3.9742652773416359e-01 8.1625913068193900e-01  6.2719870100267139e-01 3.7244551251211278e-01 8.3027947756771359e-01  6.2797093142570914e-01 3.7651295413085462e-01 8.2810544161295552e-01  6.3304198121320043e-01 4.0475118655080833e-01 8.1212211751617047e-01  6.3974418768326680e-01 4.4170703877877010e-01 7.8519701078858828e-01  6.3462030219286691e-01 4.0951312849302296e-01 8.0845546732983153e-01  5.9104240320724333e-01 2.3575277727897581e-01 8.6053240724772262e-01  5.2224110980010141e-01 1.0432621808456742e-01 6.4353347883707712e-01  4.7759993059850603e-01 9.1656851349487228e-02 3.7380010569142069e-01  4.6149153530581277e-01 1.5078462599027859e-01 2.3535453244642063e-01  4.7163265605314114e-01 3.2059959436658769e-01 1.9392153752787430e-01  5.1157134648181524e-01 5.8487260590551071e-01 2.2344451461828777e-01  5.6751362009843431e-01 7.3172235004234076e-01 3.0494694099717712e-01  6.1467809883851954e-01 7.1524262268716488e-01 4.3260449460081141e-01  6.3821021032294978e-01 6.1443062110898561e-01 5.9581084394697903e-01  6.3549348785736359e-01 4.6979603719484381e-01 7.5908748151736283e-01  6.0882755146952527e-01 3.0512555733023750e-01 8.5671160073530817e-01  5.6589930352333773e-01 1.6762134893377670e-01 8.1400678199529763e-01  5.2441052045938985e-01 9.9610132106649998e-02 6.5526508920469884e-01  4.9651897268379680e-01 8.1120811020884212e-02 4.9978448313910517e-01  4.7993301289090856e-01 8.2703152784163125e-02 3.9369760590651065e-01  4.7313328402265620e-01 8.5536888072809181e-02 3.4854172219756457e-01  4.7177081778789032e-01 8.6599915168905431e-02 3.3908611892049179e-01  4.7595781323915520e-01 8.2812728989578893e-02 3.6824987684607158e-01  4.8819808868775522e-01 8.0443988744970260e-02 4.4816213669056604e-01  5.1312738302283489e-01 9.0985418641333665e-02 5.9555282425620237e-01  5.5384660174387823e-01 1.4395168164683197e-01 7.7859317133248318e-01  6.0116395857873461e-01 2.7762413921918577e-01 8.5963698238660347e-01  6.3274750402013125e-01 4.6153738245065001e-01 7.6382090905050548e-01  6.3429623644509170e-01 6.2458608082913325e-01 5.7949021175915427e-01  6.0317212613688420e-01 7.2572565626431462e-01 3.9858331104731520e-01  5.4674164346717291e-01 7.0119106608434145e-01 2.6928239867283688e-01  4.9288105962066620e-01 4.8654651155284834e-01 2.0142839773882820e-01  4.6520709010387207e-01 2.3702242270457144e-01 2.0705199324464074e-01  4.6351471938088312e-01 1.1159730388755587e-01 2.7070241637138587e-01  4.6576846709161546e-01 8.9726644996953792e-02 2.9793818233494079e-01  4.6237520601076226e-01 2.4221775375062857e-01 1.8412835291995530e-01  4.7052140141551346e-01 3.5016249020013790e-01 1.6628487622671967e-01  4.8247220856317802e-01 4.3898620961276097e-01 1.7354011813828996e-01  4.7997786988491381e-01 4.1860482264567428e-01 1.7265447434142142e-01  4.6722209262611847e-01 3.0155205624744308e-01 1.7822239858203176e-01  4.6265878534079580e-01 1.6597763972106383e-01 2.3342945207260785e-01  4.7486324417583586e-01 9.0087534076231005e-02 3.5539507126341141e-01  4.8218399119271882e-01 7.7583319513200216e-02 4.0966416572981706e-01  4.6792367200499702e-01 1.1213554853502296e-01 2.9758242781436306e-01  4.6543269294816497e-01 1.8081932138441142e-01 2.4459227752574014e-01  4.9573538139061157e-01 1.9447098214889880e-01 4.4505971354561008e-01  5.6142116981764856e-01 2.5353953727735906e-01 7.6845306882690856e-01  5.9117310384007149e-01 4.6435014629570814e-01 6.8102494821541693e-01  5.3282895349441373e-01 4.7041224639751678e-01 4.4186721778871985e-01  4.7793138571417404e-01 1.8640792838266432e-01 3.2720925705735260e-01  4.8535948750022462e-01 7.8698106929934800e-02 4.3239521462691732e-01  4.7782427498781455e-01 8.8336761391441296e-02 3.7651911441533276e-01  4.6159050956010633e-01 1.4965088897308351e-01 2.3624114789088885e-01  4.6616825888948793e-01 2.7996881524949069e-01 1.8488658169850733e-01  4.9478561707087754e-01 5.0936565555841451e-01 1.9544902266973155e-01  5.4358404794469639e-01 6.9981830010102219e-01 2.5675343968508663e-01  5.9394640253963571e-01 7.4077787509699544e-01 3.6094761728050401e-01  6.2852172883331048e-01 6.8387318347594905e-01 4.9486700213544593e-01  6.4166924637889056e-01 5.8176570533809624e-01 6.3941944313687293e-01  6.3584464577782929e-01 4.5949169637064424e-01 7.6606534854815211e-01  6.1758066180211879e-01 3.3990535195809751e-01 8.4426871135894088e-01  5.9513173896877403e-01 2.4608880189552867e-01 8.6099987309148884e-01  5.7674463736568604e-01 1.9002937390956587e-01 8.3900980946733439e-01  5.6676927935162413e-01 1.6590638262097543e-01 8.1559190965011175e-01  5.6666681689366227e-01 1.6594047341517551e-01 8.1464376308694653e-01  5.7584504967426509e-01 1.8889718225174781e-01 8.3542655640959995e-01  5.9352891993009937e-01 2.4103276685134561e-01 8.5867175827087183e-01  6.1456772688773675e-01 3.2278290273525256e-01 8.5294832015993882e-01  6.3502239926042536e-01 4.3539707013707324e-01 7.9391539987794735e-01  6.4368128016591297e-01 5.5188168258926995e-01 6.7570023268787638e-01  6.3814381295344869e-01 6.5148223226945656e-01 5.4925321190530496e-01  6.1480181784960430e-01 7.2385676221228512e-01 4.2141590484465824e-01  5.7409111455432638e-01 7.4038549483025096e-01 3.1306966020171728e-01  5.2358036272753650e-01 6.4034998804407384e-01 2.3105163890089370e-01  4.8047620839574090e-01 4.0308567707257914e-01 1.9031180564761754e-01  4.6109154906276123e-01 1.9664689846283004e-01 2.0560037517199040e-01  4.6436904797397827e-01 1.0561680303833547e-01 2.7883008103175583e-01  4.7424766963370774e-01 8.1123207066550074e-02 3.5440650250548555e-01  4.7393840790452813e-01 8.5723067592326799e-02 3.4789912980432131e-01  4.6869805943174342e-01 9.3595159996652300e-02 3.0943846666629771e-01  4.6610785302247482e-01 9.7311449910335454e-02 2.9110102997695703e-01  4.6468883737039113e-01 1.0062253524235375e-01 2.8026262116842771e-01  4.6302947228174740e-01 1.0585573800703257e-01 2.6682966745245962e-01  4.6090984681130887e-01 1.1550651807737002e-01 2.4788256341676201e-01  4.5935529844496725e-01 1.2604808836636844e-01 2.3203207274252710e-01  4.5887921134347581e-01 1.3110035241888116e-01 2.2627567649863131e-01  4.6147363746211839e-01 1.1984212904735413e-01 2.4997110295748340e-01  4.7729575138848956e-01 9.6657155432987557e-02 3.6666545177445853e-01  5.1887551340189308e-01 9.9815751063263639e-02 6.1914999216773681e-01  5.4926366132795723e-01 1.3111427047961954e-01 7.5392441079686201e-01  5.3473442875063593e-01 1.1708619994853511e-01 6.9596077225665409e-01  5.7746871594371130e-01 3.3972635310891319e-01 7.6108234967531252e-01  5.6293455860271324e-01 5.8516042179992933e-01 4.5180976200211337e-01  4.8738336533204568e-01 4.4766858166402068e-01 2.0072446474342889e-01  4.8337564181070497e-01 4.2876641644693553e-01 1.9250725878146469e-01  5.6127666570689250e-01 6.0926305665952174e-01 4.1910760551896115e-01  5.9322677370599630e-01 4.3328197029735810e-01 7.2475153912794299e-01  5.2456900722479194e-01 1.9109681139032891e-01 6.3301473953136189e-01  4.7439830011641737e-01 1.4171352657080680e-01 3.3020818906463412e-01  4.7134630206678602e-01 1.0293160343476938e-01 3.2689496120397449e-01  4.9625865382875761e-01 9.0546063923175213e-02 4.9223290522551266e-01  5.5133312546037738e-01 1.4986710474170403e-01 7.7496431451915393e-01  6.2149752264922742e-01 3.7035410373559086e-01 8.3163694045234737e-01  6.4349322683681298e-01 4.8055313552446483e-01 7.4997286874244840e-01  6.0713416618301219e-01 3.1651103498285132e-01 8.4647583687821504e-01  5.5199382112942508e-01 1.8754805468188765e-01 7.6453696002602067e-01  5.5639040936454542e-01 3.6176110594343286e-01 6.5628940459543739e-01  5.3813436056046327e-01 5.6221459861804979e-01 3.6854845717069840e-01  4.8508070472802955e-01 3.5290076537366755e-01 2.6193256122498726e-01  4.7962302571007354e-01 1.4931608832169677e-01 3.6321264394798958e-01  5.3714820161063148e-01 1.5369338101553978e-01 7.1740602688470789e-01  6.2019735870313175e-01 4.3818623602549001e-01 7.8075458483072202e-01  6.2772308043471126e-01 6.9897819704123587e-01 4.7169597577511291e-01  5.9821255264394380e-01 7.7455056755697205e-01 3.2457732101467762e-01  5.7876382188030140e-01 7.7618329033739353e-01 2.7894560352392633e-01  5.7302553633492936e-01 7.6743861060498242e-01 2.7244169492082654e-01  5.7143381277275473e-01 7.6466099469309923e-01 2.7128310045708909e-01  5.6965553311185280e-01 7.6309080729128953e-01 2.6803161186948987e-01  5.6778132225148414e-01 7.6133841258882706e-01 2.6457287335922541e-01  5.6586551252756845e-01 7.5922283581494787e-01 2.6130255092012922e-01  5.6401281267651282e-01 7.5699052304934622e-01 2.5819781841808825e-01  5.6222773873073717e-01 7.5467524485329018e-01 2.5525484304617752e-01  5.6049775402880941e-01 7.5227909433989859e-01 2.5244979969615877e-01  5.5882180692178374e-01 7.4981019264484083e-01 2.4977675761800258e-01  5.5719481504087776e-01 7.4727057207037684e-01 2.4722278254933305e-01  5.5560987293956854e-01 7.4466136186042886e-01 2.4477140007172066e-01  5.5409448008719198e-01 7.4204080677483253e-01 2.4246071812106013e-01  5.5263410961776160e-01 7.3939559650416165e-01 2.4026526178371102e-01  5.5119637933353138e-01 7.3667681747280456e-01 2.3813160415228429e-01  5.4982134644069158e-01 7.3396880779393647e-01 2.3611720449267773e-01  5.4850458398636781e-01 7.3127422493221883e-01 2.3421280719997270e-01  5.4722629726626348e-01 7.2856414693128746e-01 2.3238509058685838e-01  5.4599679467156115e-01 7.2586869310311974e-01 2.3064623869618001e-01  5.4480565887058097e-01 7.2317299474679864e-01 2.2898109663497848e-01  5.4367406066995738e-01 7.2053497426907753e-01 2.2741396025107133e-01  5.4257717311954745e-01 7.1790496490607014e-01 2.2591145101611895e-01  5.4152953561768014e-01 7.1532565482322974e-01 2.2448999026146638e-01  5.4052022385432175e-01 7.1277768955887333e-01 2.2313210902686101e-01  5.3954563908545394e-01 7.1025924357130443e-01 2.2183214483196834e-01  5.3862849499254439e-01 7.0783556002079417e-01 2.2062120663392354e-01  5.3775675902506836e-01 7.0548269652832007e-01 2.1947866950894526e-01  5.3691137062860506e-01 7.0315679385758034e-01 2.1837876490380809e-01  5.3611608487171358e-01 7.0092727754321316e-01 2.1735180347260591e-01  5.3536700634057821e-01 6.9879076096687298e-01 2.1639200053342200e-01  5.3465317597214224e-01 6.9672120309730656e-01 2.1548255736368946e-01  5.3397558229753406e-01 6.9472773997813697e-01 2.1462488157124601e-01  5.3334459096028475e-01 6.9284390948420327e-01 2.1383068735417182e-01  5.4555321624122011e-01 7.2487173113700720e-01 2.3002682994452844e-01  4.6556912692037650e-01 1.0449902141098498e-01 2.8630718464743787e-01  5.3245033693322164e-01 6.9014011476370352e-01 2.1270842645419843e-01  5.2430340508483908e-01 1.1054601044042880e-01 6.5221729342539436e-01  5.3321777029907325e-01 6.9246078907542830e-01 2.1367371395578538e-01  4.6767409460463399e-01 1.2542377751626452e-01 2.8956550740086279e-01  5.4437657479633439e-01 7.2219611181324439e-01 2.2836873249599052e-01  5.3153040622156011e-01 1.8615043743934920e-01 6.7830874668749086e-01  4.6629291341143209e-01 2.5087027321417904e-01 2.0464476963941869e-01  4.6542104739612217e-01 1.3502974268214904e-01 2.6940812967649880e-01  5.5821237359312770e-01 7.4887099255942868e-01 2.4881903286560075e-01  5.4484168180750836e-01 1.3967863926714721e-01 7.3884589481324991e-01  6.3325842059030213e-01 6.0593055884181946e-01 6.0574897088045199e-01  5.6876443241518071e-01 7.6225917250728192e-01 2.6641620091173984e-01  6.2619427580376286e-01 3.6734488171812141e-01 8.3285256070883162e-01  5.2977611198065810e-01 6.8170929169048355e-01 2.0942331524891994e-01  6.2482444697918127e-01 4.2211579857180292e-01 7.9557750135027550e-01  4.6644626713191584e-01 1.3071532709470959e-01 2.7772066442111326e-01  5.2849868355519247e-01 6.7751550924700543e-01 2.0788302086353774e-01  5.6339047689322808e-01 2.2044478996994843e-01 7.9878739568278900e-01  6.1514326620931570e-01 3.3571130823558215e-01 8.4265620427398058e-01  6.2741815588813243e-01 3.9562161177457200e-01 8.2155651713069178e-01  5.2852956050674049e-01 6.7761571173217960e-01 2.0792086999286510e-01  5.3431899199623423e-01 2.0000349022946051e-01 6.8171170497833067e-01  5.4780143212174914e-01 3.7008544312334951e-01 6.1338037062603223e-01  4.7201180231588857e-01 1.0691624312941618e-01 3.3068761168475580e-01  5.2942188971889248e-01 6.8055219142503742e-01 2.0899750159425598e-01  5.3924931691421907e-01 7.0948077879978499e-01 2.2144253687269475e-01  4.6261677187427724e-01 1.0775793580603950e-01 2.6313697996978619e-01  6.2973964138450889e-01 4.8192685562000681e-01 7.4206812821041712e-01  5.8117258049967713e-01 7.6404967560499426e-01 2.9686365259544978e-01  5.3653674586255840e-01 7.0212401998897411e-01 2.1788684958872706e-01  4.6750792585798456e-01 1.2486239362270145e-01 2.8818452129238276e-01  5.9888608237662433e-01 2.6607893138266719e-01 8.5869506005943663e-01  5.2207682049463100e-01 5.6316849954327086e-01 2.9136676093921610e-01  5.3071524885751375e-01 6.8471558339055372e-01 2.1057267497159185e-01  5.2159464916023912e-01 1.0884462865623164e-01 6.3314319049787637e-01  6.0728865657711673e-01 7.0146541758603764e-01 4.3885903568051071e-01  5.3589849139653023e-01 7.0030831983262509e-01 2.1707479297742810e-01  5.5072016916340605e-01 7.3575225200882366e-01 2.3743371826686765e-01  4.6980854465522881e-01 1.0198307001500970e-01 3.1442201649941848e-01  4.8432671428711482e-01 4.1352089463224612e-01 2.0586759188229581e-01  4.8900329833434836e-01 1.5424799083381141e-01 4.2247273081159753e-01  5.2908514374882065e-01 6.7945321787185686e-01 2.0858866530852874e-01  5.4838889455006390e-01 7.3119150383731901e-01 2.3369589152765827e-01  5.0321944929552864e-01 5.3248833544011631e-01 2.1596435601211234e-01  5.0830266739613073e-01 9.8508803956528376e-02 5.6341991776469935e-01  6.4939251885417115e-01 5.9291355896836162e-01 6.3802891024393571e-01  6.0264144099611749e-01 2.7450390874408620e-01 8.6718471827224386e-01  5.4220419549184173e-01 7.1699027935666204e-01 2.2540662866273201e-01  5.3439195207213130e-01 6.9596894348722094e-01 2.1514511908325448e-01  5.8041422393403408e-01 7.7338469144116273e-01 2.8645308035746042e-01  5.8450711018768453e-01 7.2029596751318203e-01 3.6332820234004720e-01  5.0998742772802530e-01 5.0949940046064834e-01 2.7710717706410914e-01  4.6828397798174132e-01 9.3930890867395991e-02 3.0674397979737278e-01  5.3958674551138075e-01 7.1038369143661628e-01 2.2187791562360959e-01  5.6331048275