<?xml version="1.0"?>
<VTKFile type="UnstructuredGrid"  version="0.1"  >
<UnstructuredGrid>
<Piece  NumberOfPoints="4940" NumberOfCells="9650">
<Points>
<DataArray  type="Float64"  NumberOfComponents="3"  format="ascii">500 250 0  0 250 0  250 500 0  250 0 0  256.8885856082646 499.9050767557906 0  263.7719401218049 499.6203791065173 0  270.6448364229772 499.1461232471188 0  277.5020553257866 498.4826693209355 0  284.3383895508592 497.6305211460281 0  291.1486476865662 496.5903258312597 0  297.9276581259182 495.3628732847843 0  304.6702729675493 493.9490956196674 0  311.3713719748657 492.3500664368026 0  318.0258664141369 490.5670000199653 0  324.6287029687753 488.6012504015818 0  331.1748675330201 486.4543103455647 0  337.6593890460416 484.1278102064655 0  344.0773432429536 481.6235166997244 0  350.4238564271474 478.9433315480048 0  356.694109139292 476.0892900492477 0  362.88333985546 473.0635595140469 0  368.9868485575419 469.8684376402048 0  375.0000003153078 466.5063507640667 0  380.9182288257928 462.9798520074548 0  386.7370398729688 459.2916193419558 0  392.4520147244077 455.444453565817 0  398.0588135356345 451.4412761437442 0  403.5531785622926 447.285127045646 0  408.9309374414144 442.9791624087773 0  414.1880064015299 438.5266521049243 0  419.3203932989752 433.9309773069245 0  424.324200661095 429.1956279150535 0  429.1956286596235 424.3241998957182 0  433.9309780058756 419.3203925397119 0  438.5266527445345 414.1880056671062 0  442.9791630130591 408.9309367076756 0  447.2851276060475 403.5531778422888 0  451.4412766621026 398.0588128303826 0  455.4444540361634 392.4520140460735 0  459.2916197786263 386.7370392045948 0  462.9798524073514 380.9182281752347 0  466.5063511234856 374.9999996927758 0  469.8684379657123 368.9868479560565 0  473.0635598144817 362.8833392617846 0  476.0892903190255 356.6941085676214 0  478.9433317963513 350.4238558609745 0  481.6235169154735 344.0773427117675 0  484.12781039012 337.6593885555221 0  486.4543105028062 331.1748670749914 0  488.601250531677 324.6287025528375 0  490.5670001317469 318.0258660188321 0  492.3500665291326 311.3713716102628 0  493.949095695951 304.6702726271575 0  495.3628733416623 297.9276578347343 0  496.5903258712341 291.1486474470129 0  497.6305211749058 284.3383893426084 0  498.4826693388848 277.502055163614 0  499.1461232580606 270.6448362909296 0  499.6203791109319 263.7719400417897 0  499.9050767571306 256.8885855596534 0  499.9050767559877 243.1114143988867 0  499.6203791069493 236.2280598860241 0  499.1461232485393 229.3551635941651 0  498.4826693235677 222.4979446979962 0  497.6305211491849 215.6616104719064 0  496.5903258357701 208.8513523404629 0  495.3628732906988 202.0723419043604 0  493.9490956264813 195.3297270628552 0  492.3500664487791 188.6286280724281 0  490.5670000344809 181.9741336371959 0  488.6012504175981 175.3712970824318 0  486.4543103623226 168.8251325157939 0  484.1278102222298 162.3406109960628 0  481.6235167152198 155.9226567951971 0  478.9433315621651 149.5761436051346 0  476.0892900516498 143.3058908657982 0  473.063559513628 137.1166601437124 0  469.8684376406648 131.0131514433083 0  466.5063507675389 124.9999996907064 0  462.9798520124137 119.0817711822745 0  459.2916193464549 113.2629601339176 0  455.4444535642773 107.5479852733717 0  451.4412761528674 101.9411864767781 0  447.2851270583545 96.44682145403524 0  442.9791624165781 91.06906256805769 0  438.5266521117469 85.81199360630404 0  433.9309773156125 80.67960671046254 0  429.1956279150353 75.67579933888632 0  424.3241998888952 70.80437133373906 0  419.3203925223282 66.06902197812161 0  414.1880056411937 61.47334723289828 0  408.9309366751728 57.0208369601728 0  403.5531778009394 52.71487236176898 0  398.058812796452 48.55872331295853 0  392.4520140187753 44.55554594490843 0  386.7370391799677 40.70838020528396 0  380.9182281475119 37.02014757560744 0  374.9999996718656 33.49364886444181 0  368.9868479340393 30.13156202237255 0  362.8833392380029 26.93644017348339 0  356.6941085456942 23.91070967062674 0  350.4238558420009 21.0566681953261 0  344.0773426899492 18.37648307566465 0  337.6593885328982 15.87218960140942 0  331.1748670549786 13.54568949032341 0  324.6287025315056 11.39874946165088 0  318.0258660010876 9.432999863235466 0  311.3713716017894 7.649933468721599 0  304.6702726190621 6.050904302234756 0  297.9276578269805 4.637126656823085 0  291.148647441857 3.409674127905504 0  284.3383893425031 2.369478825079682 0  277.502055159398 1.517330660648639 0  270.6448362875833 0.853876741662134 0  263.7719400401456 0.3796208889774277 0  256.8885855592052 0.09492324285704967 0  243.1114143979462 0.09492324403817065 0  236.2280598850882 0.3796208931023841 0  229.3551635938215 0.8538767514891958 0  222.4979446968584 1.517330676558146 0  215.6616104703111 2.369478851036291 0  208.8513523382973 3.409674164591252 0  202.0723419066374 4.637126708856528 0  195.3297270659513 6.050904372824903 0  188.628628074828 7.649933550613184 0  181.9741336377093 9.432999965373938 0  175.3712970793675 11.39874958336037 0  168.8251325057572 13.54568964112298 0  162.340610986655 15.87218978129263 0  155.9226567874317 18.37648328793418 0  149.576143602509 21.05666843898663 0  143.3058908718157 23.91070994551046 0  137.1166601505524 26.93644048291054 0  131.0131514451933 30.13156235831508 0  124.9999996848412 33.49364923584736 0  119.0817711715717 37.0201479941652 0  113.2629601211624 40.70838066187849 0  107.5479852622251 44.55554644345162 0  101.9411864693332 48.55872385260452 0  96.44682143286516 52.71487295812284 0  91.06906254351222 57.02083760363669 0  85.81199358272519 61.4733479087879 0  80.67960667988106 66.06902271253972 0  75.67579930062769 70.80437212218331 0  70.80437129287643 75.67580015310926 0  66.06902193673014 80.67960752263491 0  61.47334718684866 85.81199441168215 0  57.02083692524275 91.0690633672404 0  52.71487232786438 96.44682224262129 0  48.55872328070024 101.941187247437 0  44.55554591578033 107.5479860232332 0  40.7083801742321 113.2629608675606 0  37.02014754791168 119.0817718975441 0  33.49364883372994 125.000000381329 0  30.13156199866361 131.0131521097709 0  26.9364401549829 137.1166607985551 0  23.91070965524918 143.3058914868915 0  21.05666818346614 149.576144185037 0  18.37648306853811 155.9226573275967 0  15.8721895918909 162.3406114925245 0  13.54568948170046 168.8251329701392 0  11.39874945301878 175.3712974960928 0  9.432999857087736 181.9741340206533 0  7.649933466342702 188.6286284076045 0  6.050904301250966 195.3297273853278 0  4.637126656808988 202.0723421730917 0  3.409674127767772 208.8513525589684 0  2.369478824521138 215.6616106615248 0  1.517330660909465 222.4979448382452 0  0.8538767414496533 229.355163714981 0  0.3796208887135322 236.2280599646376 0  0.09492324266324204 243.1114144478261 0  0.0949232442452228 256.8885856095658 0  0.3796208935834784 263.7719401236316 0  0.8538767530323526 270.6448364248016 0  1.517330679476544 277.5020553295092 0  2.369478854618649 284.3383895555228 0  3.409674170191892 291.1486476952655 0  4.6371267162381 297.9276581311522 0  6.050904381420935 304.6702729724059 0  7.649933562385399 311.3713719716595 0  9.43299997979841 318.0258664133013 0  11.3987495994252 324.6287029719946 0  13.54568965885832 331.174867545904 0  15.87218979367188 337.6593890464085 0  18.37648329843151 344.0773432384132 0  21.05666844777872 350.423856417535 0  23.91070995156048 356.6941091410045 0  26.93644048988043 362.8833398632205 0  30.13156235982007 368.9868485575877 0  33.49364924138357 375.0000003247478 0  37.0201480006036 380.9182288389023 0  40.70838066758398 386.7370398875706 0  44.55554644477201 392.4520147396792 0  48.55872386086904 398.0588135419111 0  52.71487295981296 403.5531785693063 0  57.02083760525949 408.9309374584583 0  61.47334790862246 414.1880064170849 0  66.06902271205095 419.320393319588 0  70.80437211216579 424.3242006890749 0  75.67580013809859 429.195628692521 0  80.6796075127923 433.930978054209 0  85.81199439754931 438.5266528008431 0  91.06906334717917 442.9791630582355 0  96.44682221438322 447.2851276501571 0  101.9411872243843 451.441276702356 0  107.5479859945825 455.4444540643537 0  113.2629608446994 459.2916198108319 0  119.0817718768376 462.9798524393601 0  125.0000003647644 466.5063511567065 0  131.0131521012763 469.8684379967393 0  137.1166607840049 473.0635598376539 0  143.3058914748804 476.0892903390826 0  149.5761441732679 478.9433318113714 0  155.9226573130112 481.6235169255377 0  162.3406114779862 484.1278104026658 0  168.8251329570439 486.4543105138039 0  175.3712974805475 488.601250542119 0  181.9741340135204 490.5670001408953 0  188.6286284005059 492.3500665318597 0  195.3297273788229 493.9490956972913 0  202.0723421640089 495.3628733414168 0  208.8513525529672 496.5903258712308 0  215.6616106544547 497.6305211744985 0  222.4979448327038 498.4826693384772 0  229.3551637102845 499.1461232581612 0  236.2280599621369 499.6203791111485 0  243.1114144470173 499.9050767573145 0  155.2373389820306 474.8197567317462 0  25.36256300907667 153.9152755065208 0  432.3709625126712 412.6214396304305 0  6.013151705810699 246.637913163471 0  246.6379131630491 493.986848294322 0  338.6995838441862 22.68244767887072 0  477.3175523131281 338.6995838660569 0  493.9868482700757 246.6379131399102 0  246.6201155078769 6.218451882810491 0  417.6179310263282 72.7156044707053 0  102.2232990934413 445.0100869616822 0  63.66330858966404 92.20354579482142 0  391.3105220491464 50.73522820883105 0  72.79295043967942 418.0702734974704 0  448.290574428537 108.25674339002 0  402.4604651193511 440.7462829841712 0  97.55317348421397 59.11376320116034 0  136.7376477664901 33.58246472647134 0  363.3288394375288 465.6947312928271 0  44.0678766556007 381.0860953771871 0  469.6905266180034 142.3890690100806 0  22.68244791668644 338.6995843487432 0  338.699584349159 477.317552078365 0  173.389488083762 18.6681884918202 0  483.4809734778481 179.7121987795732 0  13.50237455842738 306.4709525540879 0  305.9825168523021 487.24416992
[...]
<PointData  Vectors="f_12"> 
<DataArray  type="Float64"  Name="f_12"  NumberOfComponents="3" format="ascii">5.4933310962841075e-01 1.3260835924553765e-01 7.5075150773275146e-01  4.7166006955515077e-01 2.8549366773661689e-01 2.2367664211779445e-01  5.8576396616424775e-01 2.1379524061770461e-01 8.4461559933503905e-01  4.9272789859839738e-01 1.0797012433097677e-01 4.7134045263180396e-01  5.8635290194648904e-01 2.1547310585920082e-01 8.4543599525755575e-01  5.8688443473017970e-01 2.1699926776963771e-01 8.4615412773412757e-01  5.8739619368667162e-01 2.1847840599233087e-01 8.4682680420200440e-01  5.8785898451654273e-01 2.1982432256103562e-01 8.4741956235493598e-01  5.8828632343586074e-01 2.2107443498673238e-01 8.4795328758537636e-01  5.8867681586707810e-01 2.2222285988393853e-01 8.4842912865029063e-01  5.8903125705003112e-01 2.2327015033536221e-01 8.4885185553763365e-01  5.8935290613792024e-01 2.2422470365165612e-01 8.4922757891888978e-01  5.8963901641490390e-01 2.2507719157419318e-01 8.4955521988948279e-01  5.8988773338198219e-01 2.2582072321488886e-01 8.4983556195346577e-01  5.9007719279854898e-01 2.2638905630692446e-01 8.5004564225428636e-01  5.9028011649025214e-01 2.2699856180437447e-01 8.5026827984379283e-01  5.9038431125366364e-01 2.2731277773110703e-01 8.5038085681028641e-01  5.9049289087344492e-01 2.2764002588433183e-01 8.5049788010896754e-01  5.9055734200086307e-01 2.2783454081857613e-01 8.5056688291668503e-01  5.9059105123926159e-01 2.2793618309240463e-01 8.5060289100936515e-01  5.9059806896372224e-01 2.2795722347752428e-01 8.5060965043778736e-01  5.9054767429159249e-01 2.2780497075805353e-01 8.5055573687938779e-01  5.9045915863137910e-01 2.2753763428618912e-01 8.5046120895322930e-01  5.9036245046058122e-01 2.2724571366753515e-01 8.5035651442972826e-01  5.9022737325661623e-01 2.2683857092252668e-01 8.5020972326387123e-01  5.9004183902346696e-01 2.2628105216424657e-01 8.5000554246334847e-01  5.8980112779731886e-01 2.2555991056742652e-01 8.4973696281641908e-01  5.8955444317077155e-01 2.2482271386064295e-01 8.4945747307330677e-01  5.8927376373570894e-01 2.2398689574205702e-01 8.4913378931966310e-01  5.8892616139668263e-01 2.2295634709326115e-01 8.4872520432610277e-01  5.8856304397142689e-01 2.2188433494976409e-01 8.4828950042387419e-01  5.8815395431646167e-01 2.2068313669331935e-01 8.4778635509558431e-01  5.8770296662525878e-01 2.1936588559415945e-01 8.4721888024906611e-01  5.8722663746392711e-01 2.1798286434102840e-01 8.4660340129543554e-01  5.8667989780490826e-01 2.1640661630807226e-01 8.4587627270490351e-01  5.8609800468457163e-01 2.1474069195219847e-01 8.4508057868905451e-01  5.8549793302240360e-01 2.1303565244908215e-01 8.4423428589318761e-01  5.8482741691764584e-01 2.1114684448358095e-01 8.4325840025056042e-01  5.8408211166193402e-01 2.0906693097733081e-01 8.4213791703197216e-01  5.8330858152996179e-01 2.0692913853288511e-01 8.4093464007571517e-01  5.8251060249719311e-01 2.0474615835477100e-01 8.3964992464087818e-01  5.8163582165113981e-01 2.0238005601163472e-01 8.3819106489707862e-01  5.8068174103888237e-01 1.9983002815267617e-01 8.3654201741379819e-01  5.7968506434471612e-01 1.9720054739937043e-01 8.3475395587210299e-01  5.7861413834841535e-01 1.9441427075748882e-01 8.3275889938221481e-01  5.7747703372342785e-01 1.9149902421817008e-01 8.3055732443315733e-01  5.7627599443816657e-01 1.8846803878056687e-01 8.2813997160321418e-01  5.7501280466000737e-01 1.8533173975230080e-01 8.2550017154250277e-01  5.7363194255466510e-01 1.8196802348200919e-01 8.2249032281024381e-01  5.7218469138392791e-01 1.7850762716051960e-01 8.1921165999153511e-01  5.7065543590348278e-01 1.7492894299828196e-01 8.1559856122979035e-01  5.6903094633650475e-01 1.7120764695541618e-01 8.1160670275730840e-01  5.6732224373329776e-01 1.6738718740235958e-01 8.0722831993104627e-01  5.6548286862838171e-01 1.6337721971190972e-01 8.0231976986842501e-01  5.6354579278678285e-01 1.5926915284910206e-01 7.9692962636852760e-01  5.6151425442279368e-01 1.5508543795478161e-01 7.9103839435756274e-01  5.5934699908729646e-01 1.5076199031079066e-01 7.8448578662496904e-01  5.5706404509002505e-01 1.4635951444534928e-01 7.7729484312902919e-01  5.5467003212652910e-01 1.4191022706151518e-01 7.6942478003501746e-01  5.5219207263640557e-01 1.3745099724596407e-01 7.6101276949948338e-01  5.4656529234481843e-01 1.2807860468516202e-01 7.4046712766080924e-01  5.4361047582832744e-01 1.2349639893441795e-01 7.2903679312858982e-01  5.4052824470164151e-01 1.1897152983682800e-01 7.1663819287550867e-01  5.3724325915120730e-01 1.1443358562782918e-01 7.0287608390019041e-01  5.3381902964701033e-01 1.1000704872987573e-01 6.8797966108406039e-01  5.3025192930048171e-01 1.0571612068692873e-01 6.7185691714384310e-01  5.2653820230137005e-01 1.0160430955870291e-01 6.5443707160389197e-01  5.2267350267482937e-01 9.7695145453299950e-02 6.3564541751700432e-01  5.1868887864173963e-01 9.4061837043454152e-02 6.1557227469447118e-01  5.1455005901061335e-01 9.0654103608321018e-02 5.9411041173955037e-01  5.1058203119734447e-01 8.8108312109618198e-02 5.7250589442265087e-01  5.0722128291894530e-01 8.4765870389872586e-02 5.5467774629296218e-01  4.9569099304250086e-01 7.9960087749855413e-02 4.8982969626124717e-01  4.7244491851875470e-01 9.1946467764347714e-02 3.3712072547271299e-01  4.6937113771243288e-01 2.3857441451178918e-01 2.3922487858732375e-01  5.3116126998867863e-01 5.5317011940941918e-01 3.4757128607846277e-01  5.8575031893586393e-01 4.7104936483338838e-01 6.5785354309551880e-01  5.5574159856183869e-01 2.1030646977784517e-01 7.7202646451027479e-01  5.1061989583562539e-01 1.2312052164702018e-01 5.8125592932735071e-01  5.2394540366030673e-01 2.0607331045737243e-01 6.2139724833605237e-01  5.8213540398003649e-01 5.1256706610767633e-01 6.1065651924372755e-01  5.5625162435544062e-01 6.8155743195353025e-01 3.1979979592523849e-01  4.9683304001053286e-01 5.1621548392894634e-01 1.9804123033090815e-01  4.6852538627102081e-01 3.2697118404329589e-01 1.6607987328081245e-01  4.6168505416229477e-01 2.5881308941244441e-01 1.6781420814539427e-01  4.5979270529957078e-01 2.2801544296320236e-01 1.7498767751962108e-01  4.5897568725286447e-01 1.8395282353218095e-01 1.9712133375654792e-01  4.6673175760771501e-01 1.2375228677869476e-01 2.8313720444311041e-01  4.9835017280618399e-01 9.3021192278895590e-02 5.0294020571151932e-01  5.4476212826086345e-01 1.2314890982325688e-01 7.3903937158549249e-01  5.4063441723669792e-01 1.1746686244003536e-01 7.2172539483297005e-01  5.0003187921893133e-01 8.6128520429561373e-02 5.1630497612950110e-01  4.6977290478529360e-01 9.8932545367176591e-02 3.1764393843412092e-01  4.6054394360013717e-01 1.7818705006574570e-01 2.1308867908755610e-01  4.7672841295152640e-01 3.6966055274594856e-01 1.9000867639873767e-01  5.1665449665661589e-01 6.1411300903381838e-01 2.2394466458643886e-01  5.6570591650108604e-01 7.3623063343030359e-01 2.9318641335122197e-01  6.0718666420012180e-01 7.3599184249575700e-01 3.9248446980001667e-01  6.3309406383348954e-01 6.8746690651987186e-01 4.9629007682324655e-01  6.4404103910934596e-01 6.2299201537185611e-01 5.9168963854756462e-01  6.4394430850756534e-01 5.5006026025146659e-01 6.7630277693689167e-01  6.4214564966993104e-01 5.1223228693183676e-01 7.1478228259928356e-01  6.4120129638078471e-01 5.0083312537960833e-01 7.2899257311726140e-01  6.4340886474250825e-01 5.3091105671624594e-01 7.0005252888271163e-01  6.4383298492682983e-01 5.9065134790351947e-01 6.3052491723961046e-01  6.3612987004229637e-01 6.6542723323963493e-01 5.2838485551018222e-01  6.1296602696804825e-01 7.2869608377844419e-01 4.1201483257408128e-01  5.7216506036933890e-01 7.4221597993986688e-01 3.0487372344065494e-01  5.2204438532593456e-01 6.3693079050141654e-01 2.2653753867568660e-01  4.8092581350826114e-01 4.0895126330363446e-01 1.8706656864532789e-01  4.6122725959924199e-01 2.1250615995692346e-01 1.9631887207151555e-01  4.6481766424017573e-01 1.1812766229982713e-01 2.7553705710156839e-01  4.9104251479350819e-01 9.0374381767234460e-02 4.6369887029008255e-01  5.5596157725656392e-01 1.5965298549899321e-01 7.8877625130686435e-01  6.2001938527869882e-01 3.4345509403985436e-01 8.4364765672293163e-01  5.7347322047620408e-01 2.0663311796392284e-01 8.2973863279124427e-01  4.8016339142114967e-01 1.6767365084077251e-01 3.5640167892955388e-01  5.1015423396517123e-01 3.0180311866847415e-01 4.6406551721463646e-01  5.8835468396869417e-01 4.6587595952788163e-01 6.7986323911218116e-01  5.9656852805153071e-01 6.7642297758196857e-01 4.4769214843287553e-01  5.3498249430402101e-01 6.6653320939023120e-01 2.5549305840316489e-01  4.8422374648071520e-01 4.5095818302373880e-01 1.7598708538283986e-01  4.6763204438075384e-01 3.1952836635473525e-01 1.6530432278979962e-01  4.6293647814611222e-01 2.5447094053489638e-01 1.8015288085644068e-01  4.6551903914951842e-01 1.7569960548767208e-01 2.4791397662599754e-01  4.9394573079148735e-01 1.1118052111450744e-01 4.7937942938873429e-01  5.8072200834086052e-01 2.4038098264846061e-01 8.4569360964433571e-01  6.4242570491478368e-01 5.5349318542826731e-01 6.7859215946263285e-01  6.4354382756034145e-01 6.8451543519323643e-01 5.1026252427185870e-01  6.3485851101539870e-01 7.2090877400540332e-01 4.5227281531495556e-01  6.2854728644608671e-01 7.4500544850577077e-01 4.1143026925190423e-01  6.3289553835347956e-01 7.2588821642545009e-01 4.4238151261166631e-01  6.3795946421040384e-01 5.7757935859328480e-01 6.4482073151276387e-01  6.0349486705827460e-01 3.0796098974177705e-01 8.5438580114150142e-01  5.3498030320217926e-01 1.2191354960593513e-01 7.0812225110756855e-01  4.8534121393650975e-01 8.7515369511045382e-02 4.2764297887175584e-01  4.6384368692897499e-01 1.1622731330915287e-01 2.7047837886244913e-01  4.5960535713904910e-01 1.9135591030514271e-01 1.9931080025482506e-01  4.6946388741506956e-01 3.2325277813203801e-01 1.7668567160213736e-01  4.9239343757258786e-01 5.0029684253027262e-01 1.8540406594823089e-01  5.2421317686557600e-01 6.5686984947492599e-01 2.1618996407315710e-01  5.5663276744546730e-01 7.3899784733905549e-01 2.5997967568219887e-01  5.8265535810351043e-01 7.6234362801156708e-01 3.0625058703011859e-01  5.9925569511170496e-01 7.6096538596985996e-01 3.4359611568557036e-01  6.0698945610120680e-01 7.5526596885440545e-01 3.6511242575409253e-01  6.0688437868147960e-01 7.5458172115057365e-01 3.6593809722934395e-01  5.9918278042614281e-01 7.5838584313407742e-01 3.4700932754630343e-01  5.8301073311277063e-01 7.6074534410084171e-01 3.0917591506940056e-01  5.5824746132756720e-01 7.3993496536317538e-01 2.6453913862277850e-01  5.2510162093065216e-01 6.6553560705608039e-01 2.1567962800631593e-01  4.9160674598461673e-01 4.9855911148807142e-01 1.8534319076826888e-01  4.6752469668713270e-01 3.0554985015749314e-01 1.7777164998996939e-01  4.5885136973066981e-01 1.7147651857121821e-01 2.0607359943394968e-01  4.6517902559103202e-01 1.0572904400196323e-01 2.8418731995385504e-01  4.8524283829550724e-01 8.2584513587863603e-02 4.2571800003534216e-01  5.1883908388171640e-01 9.4993016728162599e-02 6.2102159786167488e-01  5.5210775491279296e-01 1.3525791325027908e-01 7.6653163187055207e-01  5.6967969963310727e-01 1.7102904055496537e-01 8.1398462421586404e-01  5.6013842428901206e-01 1.4872653962778759e-01 7.9474103044099242e-01  5.0782888865065201e-01 9.7342561549578446e-02 5.5944176532732570e-01  4.7240928388783110e-01 1.5540248873886964e-01 3.0652415649574238e-01  4.8705471293829661e-01 3.9434122475363459e-01 2.3622257074475894e-01  5.1429115712576068e-01 6.0036534055182456e-01 2.1401568347572442e-01  5.1530116122451253e-01 6.2071688413251103e-01 1.9836482784302831e-01  5.0735492605176846e-01 5.9018979976379216e-01 1.8611354983100586e-01  5.1281630510157694e-01 6.1508392940951750e-01 1.9459050089614061e-01  5.4288614031351334e-01 6.7530285598475603e-01 2.7105265974326204e-01  5.4599902393514332e-01 5.0979999148364386e-01 4.6926129652698245e-01  5.1477621763017301e-01 2.2807909409428670e-01 5.4802268106875018e-01  5.4573522342899661e-01 2.1617057017579333e-01 7.2529188896149555e-01  5.8736560228096668e-01 4.7147601584434057e-01 6.6529857531262604e-01  5.3902253933239808e-01 5.8507599388170228e-01 3.5285454649831444e-01  4.6341608458741101e-01 1.0560906401435331e-01 2.7162512697644403e-01  4.7694299676597274e-01 8.1670067991371761e-02 3.7082785660094719e-01  4.8500273036931257e-01 7.9567627128382279e-02 4.2162086119819647e-01  4.8809891920688980e-01 8.0307285563692335e-02 4.4046227273126753e-01  4.9087349468889374e-01 8.0217827389996083e-02 4.5794710029795893e-01  4.9388593889845211e-01 8.0648996098013848e-02 4.7637690411114741e-01  4.9688438654344935e-01 8.1361610791025177e-02 4.9442106278436548e-01  4.9985501381538927e-01 8.2330445011658052e-02 5.1198547317163368e-01  5.0279605909278280e-01 8.3546534238892453e-02 5.2905399049243995e-01  5.0570075985173291e-01 8.4977992384757020e-02 5.4559943980372505e-01  5.0856587983130919e-01 8.6612206140129072e-02 5.6160457239782846e-01  5.1137669982546741e-01 8.8418813707577079e-02 5.7699840990558204e-01  5.1416320426826967e-01 9.0410521857333337e-02 5.9194639058464349e-01  5.1690304191203040e-01 9.2558014914708844e-02 6.0633954688663394e-01  5.1957272945626864e-01 9.4831928241009167e-02 6.2006109742125981e-01  5.2222748527053464e-01 9.7271184690285603e-02 6.3340395665868932e-01  5.2482288497101925e-01 9.9825498825449235e-02 6.4615421832797082e-01  5.2732980699810528e-01 1.0245592645740718e-01 6.5817664880919413e-01  5.2979837744286562e-01 1.0520344975744990e-01 6.6974026601982306e-01  5.3221400712332667e-01 1.0804112262693091e-01 6.8077836361866662e-01  5.3457642327243748e-01 1.1096347596520383e-01 6.9130685284836912e-01  5.3688065661399531e-01 1.1395492390696897e-01 7.0131547183842635e-01  5.3913583092642192e-01 1.1701855710980592e-01 7.1085710199179497e-01  5.4134284292138946e-01 1.2014935356493046e-01 7.1994776846125796e-01  5.4347720174496594e-01 1.2330190008816692e-01 7.2850489752576053e-01  5.4556425539936348e-01 1.2650708303482092e-01 7.3664073935198870e-01  5.4760875218329885e-01 1.2976150385700258e-01 7.4439467211326882e-01  5.4957460263752222e-01 1.3300322582438401e-01 7.5163641503835488e-01  5.5150523893207548e-01 1.3629327477413103e-01 7.5854764508402817e-01  5.5338358720714043e-01 1.3959718296538043e-01 7.6507349596550933e-01  5.5520396938667083e-01 1.4289634841372861e-01 7.7121368142199254e-01  5.5697288529591693e-01 1.4619580699509627e-01 7.7700126771565126e-01  5.5868971371258669e-01 1.4948693860407633e-01 7.8244863223484595e-01  5.6036073976986034e-01 1.5277534736678586e-01 7.8758812314751570e-01  5.6199367000904943e-01 1.5607056099487893e-01 7.9245352599532681e-01  5.6355407368468913e-01 1.5929536027343316e-01 7.9695753987853013e-01  5.6505974049377661e-01 1.6247903910657430e-01 8.0116599344367989e-01  5.6654868552370596e-01 1.6569693362841312e-01 8.0519383810069722e-01  5.6797197950980283e-01 1.6883809090186591e-01 8.0891954552695122e-01  5.6933475484896945e-01 1.7190664810679396e-01 8.1237087336256175e-01  5.7066062762645031e-01 1.7494937887645459e-01 8.1561866196068644e-01  5.7193656118613789e-01 1.7793146295689702e-01 8.1864019921818221e-01  5.7317514645198642e-01 1.8087725146581016e-01 8.2147660435873471e-01  5.7435008100276852e-01 1.8371888993883612e-01 8.2407556528233905e-01  5.7549169046446946e-01 1.8652394292226493e-01 8.2651792102485211e-01  5.7658150370448968e-01 1.8924263948659739e-01 8.2877099251633057e-01  5.7763315850324592e-01 1.9190508880914031e-01 8.3086976943309510e-01  5.7865057958545607e-01 1.9451659334713778e-01 8.3283187460964203e-01  5.7960597351746401e-01 1.9700107089970265e-01 8.3461495742663128e-01  5.8051403633622112e-01 1.9939286165748554e-01 8.3625078542226150e-01  5.8139760360780557e-01 2.0174739205110750e-01 8.3779038814786688e-01  5.8222789294537591e-01 2.0398550386571668e-01 8.3918859763653519e-01  5.8300938591072615e-01 2.0611436666518784e-01 8.4046310887297004e-01  5.8375558205945377e-01 2.0816814637369346e-01 8.4163897325086079e-01  5.8446486949339282e-01 2.1013819468343287e-01 8.4272324177598401e-01  5.8512491244648879e-01 2.1198872194892032e-01 8.4369902369670324e-01  5.7236564733174966e-01 1.7894753454797158e-01 8.1963444611232905e-01  5.5035009772859078e-01 1.3538897119018112e-01 7.5803684362433965e-01  5.8669974531911040e-01 2.1646448798488302e-01 8.4590574802107932e-01  5.1161936416848730e-01 5.0384571725465022e-01 2.9282123871651000e-01  5.8522980662592960e-01 2.1228501120651258e-01 8.4385320398458841e-01  6.1413552495293555e-01 3.6265995577964188e-01 8.2678833239653804e-01  5.7532178933860645e-01 1.8609749662402222e-01 8.2615546252423944e-01  5.4760733092725533e-01 1.2973849258690590e-01 7.4442893091792250e-01  4.7273380215210953e-01 1.1135685991667066e-01 3.3685664793052361e-01  5.1560755597866315e-01 9.5247717261311135e-02 6.0301300583710671e-01  5.5928637551284732e-01 1.5065317642981405e-01 7.8430162019240424e-01  6.0864112382944502e-01 6.9257606847960707e-01 4.5316357988041606e-01  4.7672611196176889e-01 3.5531214704099157e-01 2.0506121405792171e-01  5.4843616793795080e-01 1.3111379148071794e-01 7.4746926771523503e-01  5.2006309955819263e-01 6.1194829898200842e-01 2.3776989468404369e-01  5.8921070477171866e-01 2.2380122124125179e-01 8.4906165072326378e-01  5.2810677632452296e-01 6.4486162254480717e-01 2.4491001802833826e-01  6.1648468591421546e-01 3.8800868570004521e-01 8.1699323623209918e-01  5.9034068911248205e-01 2.2718090006533384e-01 8.5033656622155440e-01  5.3331663305536148e-01 1.0938979759645641e-01 6.8572412988193188e-01  5.7192610092525131e-01 5.4265501573516328e-01 5.3145199183279490e-01  5.1527044683994361e-01 9.1252211125095448e-02 5.9781124471097080e-01  5.9023521480200158e-01 2.2686486968545364e-01 8.5021992766729926e-01  6.2316196961449621e-01 4.0408966431331522e-01 8.1865805134787317e-01  5.1190722879910000e-01 8.8947909439734074e-02 5.7967650704010787e-01  5.0097430888842609e-01 8.2771425572198173e-02 5.1851501404498823e-01  5.8923940058975499e-01 2.2388877514317149e-01 8.4909678642482866e-01  5.7892573022322069e-01 1.9522895103952259e-01 8.3335526343799660e-01  5.0608150813756170e-01 5.8043836163357754e-01 1.8816572814168861e-01  5.1377736419185560e-01 5.8771967587207463e-01 2.2985739782859146e-01  5.6604968102669206e-01 1.6460213799547715e-01 8.0386039819483091e-01  5.8281353663615931e-01 2.0557467766014692e-01 8.4014292666899915e-01  4.7213862555072661e-01 3.6097680096885365e-01 1.6613484502790452e-01  5.2772785724627813e-01 1.0288877331055706e-01 6.6008620326223022e-01  4.8927451720391540e-01 8.0227074394453451e-02 4.4788774136440018e-01  5.8786259358590620e-01 2.1983629060610640e-01 8.4742478463905146e-01  6.2526020720481346e-01 6.4885060957018403e-01 5.3673726419144141e-01  4.6189741936139311e-01 1.6839920968082192e-01 2.2729224588180111e-01  5.8242523420839354e-01 2.0452201581105936e-01 8.3951591772829715e-01  5.6700559810235329e-01 1.6669649961581068e-01 8.0641048052771069e-01  5.2821326323081885e-01 3.2614575632643333e-01 5.5124385691364819e-01  5.0424398041867924e-01 9.9398235737116980e-02 5.4650538111014813e-01  5.5807715596285334e-01 1.4829882334871747e-01 7.8052182446103635e-01  5.8982128585153193e-01 2.2562210342097211e-01 8.4976163200188159e-01  5.7103914385257237e-01 1.7582109744909000e-01 8.1652429064653209e-01  6.0098592888278557e-01 5.6998411553435302e-01 5.9101041084044270e-01  6.2886528661491414e-01 6.2118858263734533e-01 5.7936295092788281e-01  5.3833463429824335e-01 1.1590785175063432e-01 7.0752242134501531e-01  4.5879328116985962e-01 1.9482593763470474e-01 1.8914137729222957e-01  5.7584552032296177e-01 1.8740441488245926e-01 8.2725669464245988e-01  5.8484147245113838e-01 2.1118715183328507e-01 8.4328396820290408e-01  5.4225447499391100e-01 1.2148133726918567e-01 7.2363433614476125e-01  4.6216876175239169e-01 1.8707927545398870e-01 2.1805602622686096e-01  5.2600283163067152e-01 1.0104354867286550e-01 6.5185368557537293e-01  4.7288490096623442e-01 2.4705448191079638e-01 2.5106499693731515e-01  5.7989702275488297e-01 1.9775831914080005e-01 8.3514260400614182e-01  5.5406548005