<?xml version="1.0"?>
<VTKFile type="UnstructuredGrid"  version="0.1"  >
<UnstructuredGrid>
<Piece  NumberOfPoints="4940" NumberOfCells="9650">
<Points>
<DataArray  type="Float64"  NumberOfComponents="3"  format="ascii">500 250 0  0 250 0  250 500 0  250 0 0  256.8885856082646 499.9050767557906 0  263.7719401218049 499.6203791065173 0  270.6448364229772 499.1461232471188 0  277.5020553257866 498.4826693209355 0  284.3383895508592 497.6305211460281 0  291.1486476865662 496.5903258312597 0  297.9276581259182 495.3628732847843 0  304.6702729675493 493.9490956196674 0  311.3713719748657 492.3500664368026 0  318.0258664141369 490.5670000199653 0  324.6287029687753 488.6012504015818 0  331.1748675330201 486.4543103455647 0  337.6593890460416 484.1278102064655 0  344.0773432429536 481.6235166997244 0  350.4238564271474 478.9433315480048 0  356.694109139292 476.0892900492477 0  362.88333985546 473.0635595140469 0  368.9868485575419 469.8684376402048 0  375.0000003153078 466.5063507640667 0  380.9182288257928 462.9798520074548 0  386.7370398729688 459.2916193419558 0  392.4520147244077 455.444453565817 0  398.0588135356345 451.4412761437442 0  403.5531785622926 447.285127045646 0  408.9309374414144 442.9791624087773 0  414.1880064015299 438.5266521049243 0  419.3203932989752 433.9309773069245 0  424.324200661095 429.1956279150535 0  429.1956286596235 424.3241998957182 0  433.9309780058756 419.3203925397119 0  438.5266527445345 414.1880056671062 0  442.9791630130591 408.9309367076756 0  447.2851276060475 403.5531778422888 0  451.4412766621026 398.0588128303826 0  455.4444540361634 392.4520140460735 0  459.2916197786263 386.7370392045948 0  462.9798524073514 380.9182281752347 0  466.5063511234856 374.9999996927758 0  469.8684379657123 368.9868479560565 0  473.0635598144817 362.8833392617846 0  476.0892903190255 356.6941085676214 0  478.9433317963513 350.4238558609745 0  481.6235169154735 344.0773427117675 0  484.12781039012 337.6593885555221 0  486.4543105028062 331.1748670749914 0  488.601250531677 324.6287025528375 0  490.5670001317469 318.0258660188321 0  492.3500665291326 311.3713716102628 0  493.949095695951 304.6702726271575 0  495.3628733416623 297.9276578347343 0  496.5903258712341 291.1486474470129 0  497.6305211749058 284.3383893426084 0  498.4826693388848 277.502055163614 0  499.1461232580606 270.6448362909296 0  499.6203791109319 263.7719400417897 0  499.9050767571306 256.8885855596534 0  499.9050767559877 243.1114143988867 0  499.6203791069493 236.2280598860241 0  499.1461232485393 229.3551635941651 0  498.4826693235677 222.4979446979962 0  497.6305211491849 215.6616104719064 0  496.5903258357701 208.8513523404629 0  495.3628732906988 202.0723419043604 0  493.9490956264813 195.3297270628552 0  492.3500664487791 188.6286280724281 0  490.5670000344809 181.9741336371959 0  488.6012504175981 175.3712970824318 0  486.4543103623226 168.8251325157939 0  484.1278102222298 162.3406109960628 0  481.6235167152198 155.9226567951971 0  478.9433315621651 149.5761436051346 0  476.0892900516498 143.3058908657982 0  473.063559513628 137.1166601437124 0  469.8684376406648 131.0131514433083 0  466.5063507675389 124.9999996907064 0  462.9798520124137 119.0817711822745 0  459.2916193464549 113.2629601339176 0  455.4444535642773 107.5479852733717 0  451.4412761528674 101.9411864767781 0  447.2851270583545 96.44682145403524 0  442.9791624165781 91.06906256805769 0  438.5266521117469 85.81199360630404 0  433.9309773156125 80.67960671046254 0  429.1956279150353 75.67579933888632 0  424.3241998888952 70.80437133373906 0  419.3203925223282 66.06902197812161 0  414.1880056411937 61.47334723289828 0  408.9309366751728 57.0208369601728 0  403.5531778009394 52.71487236176898 0  398.058812796452 48.55872331295853 0  392.4520140187753 44.55554594490843 0  386.7370391799677 40.70838020528396 0  380.9182281475119 37.02014757560744 0  374.9999996718656 33.49364886444181 0  368.9868479340393 30.13156202237255 0  362.8833392380029 26.93644017348339 0  356.6941085456942 23.91070967062674 0  350.4238558420009 21.0566681953261 0  344.0773426899492 18.37648307566465 0  337.6593885328982 15.87218960140942 0  331.1748670549786 13.54568949032341 0  324.6287025315056 11.39874946165088 0  318.0258660010876 9.432999863235466 0  311.3713716017894 7.649933468721599 0  304.6702726190621 6.050904302234756 0  297.9276578269805 4.637126656823085 0  291.148647441857 3.409674127905504 0  284.3383893425031 2.369478825079682 0  277.502055159398 1.517330660648639 0  270.6448362875833 0.853876741662134 0  263.7719400401456 0.3796208889774277 0  256.8885855592052 0.09492324285704967 0  243.1114143979462 0.09492324403817065 0  236.2280598850882 0.3796208931023841 0  229.3551635938215 0.8538767514891958 0  222.4979446968584 1.517330676558146 0  215.6616104703111 2.369478851036291 0  208.8513523382973 3.409674164591252 0  202.0723419066374 4.637126708856528 0  195.3297270659513 6.050904372824903 0  188.628628074828 7.649933550613184 0  181.9741336377093 9.432999965373938 0  175.3712970793675 11.39874958336037 0  168.8251325057572 13.54568964112298 0  162.340610986655 15.87218978129263 0  155.9226567874317 18.37648328793418 0  149.576143602509 21.05666843898663 0  143.3058908718157 23.91070994551046 0  137.1166601505524 26.93644048291054 0  131.0131514451933 30.13156235831508 0  124.9999996848412 33.49364923584736 0  119.0817711715717 37.0201479941652 0  113.2629601211624 40.70838066187849 0  107.5479852622251 44.55554644345162 0  101.9411864693332 48.55872385260452 0  96.44682143286516 52.71487295812284 0  91.06906254351222 57.02083760363669 0  85.81199358272519 61.4733479087879 0  80.67960667988106 66.06902271253972 0  75.67579930062769 70.80437212218331 0  70.80437129287643 75.67580015310926 0  66.06902193673014 80.67960752263491 0  61.47334718684866 85.81199441168215 0  57.02083692524275 91.0690633672404 0  52.71487232786438 96.44682224262129 0  48.55872328070024 101.941187247437 0  44.55554591578033 107.5479860232332 0  40.7083801742321 113.2629608675606 0  37.02014754791168 119.0817718975441 0  33.49364883372994 125.000000381329 0  30.13156199866361 131.0131521097709 0  26.9364401549829 137.1166607985551 0  23.91070965524918 143.3058914868915 0  21.05666818346614 149.576144185037 0  18.37648306853811 155.9226573275967 0  15.8721895918909 162.3406114925245 0  13.54568948170046 168.8251329701392 0  11.39874945301878 175.3712974960928 0  9.432999857087736 181.9741340206533 0  7.649933466342702 188.6286284076045 0  6.050904301250966 195.3297273853278 0  4.637126656808988 202.0723421730917 0  3.409674127767772 208.8513525589684 0  2.369478824521138 215.6616106615248 0  1.517330660909465 222.4979448382452 0  0.8538767414496533 229.355163714981 0  0.3796208887135322 236.2280599646376 0  0.09492324266324204 243.1114144478261 0  0.0949232442452228 256.8885856095658 0  0.3796208935834784 263.7719401236316 0  0.8538767530323526 270.6448364248016 0  1.517330679476544 277.5020553295092 0  2.369478854618649 284.3383895555228 0  3.409674170191892 291.1486476952655 0  4.6371267162381 297.9276581311522 0  6.050904381420935 304.6702729724059 0  7.649933562385399 311.3713719716595 0  9.43299997979841 318.0258664133013 0  11.3987495994252 324.6287029719946 0  13.54568965885832 331.174867545904 0  15.87218979367188 337.6593890464085 0  18.37648329843151 344.0773432384132 0  21.05666844777872 350.423856417535 0  23.91070995156048 356.6941091410045 0  26.93644048988043 362.8833398632205 0  30.13156235982007 368.9868485575877 0  33.49364924138357 375.0000003247478 0  37.0201480006036 380.9182288389023 0  40.70838066758398 386.7370398875706 0  44.55554644477201 392.4520147396792 0  48.55872386086904 398.0588135419111 0  52.71487295981296 403.5531785693063 0  57.02083760525949 408.9309374584583 0  61.47334790862246 414.1880064170849 0  66.06902271205095 419.320393319588 0  70.80437211216579 424.3242006890749 0  75.67580013809859 429.195628692521 0  80.6796075127923 433.930978054209 0  85.81199439754931 438.5266528008431 0  91.06906334717917 442.9791630582355 0  96.44682221438322 447.2851276501571 0  101.9411872243843 451.441276702356 0  107.5479859945825 455.4444540643537 0  113.2629608446994 459.2916198108319 0  119.0817718768376 462.9798524393601 0  125.0000003647644 466.5063511567065 0  131.0131521012763 469.8684379967393 0  137.1166607840049 473.0635598376539 0  143.3058914748804 476.0892903390826 0  149.5761441732679 478.9433318113714 0  155.9226573130112 481.6235169255377 0  162.3406114779862 484.1278104026658 0  168.8251329570439 486.4543105138039 0  175.3712974805475 488.601250542119 0  181.9741340135204 490.5670001408953 0  188.6286284005059 492.3500665318597 0  195.3297273788229 493.9490956972913 0  202.0723421640089 495.3628733414168 0  208.8513525529672 496.5903258712308 0  215.6616106544547 497.6305211744985 0  222.4979448327038 498.4826693384772 0  229.3551637102845 499.1461232581612 0  236.2280599621369 499.6203791111485 0  243.1114144470173 499.9050767573145 0  155.2373389820306 474.8197567317462 0  25.36256300907667 153.9152755065208 0  432.3709625126712 412.6214396304305 0  6.013151705810699 246.637913163471 0  246.6379131630491 493.986848294322 0  338.6995838441862 22.68244767887072 0  477.3175523131281 338.6995838660569 0  493.9868482700757 246.6379131399102 0  246.6201155078769 6.218451882810491 0  417.6179310263282 72.7156044707053 0  102.2232990934413 445.0100869616822 0  63.66330858966404 92.20354579482142 0  391.3105220491464 50.73522820883105 0  72.79295043967942 418.0702734974704 0  448.290574428537 108.25674339002 0  402.4604651193511 440.7462829841712 0  97.55317348421397 59.11376320116034 0  136.7376477664901 33.58246472647134 0  363.3288394375288 465.6947312928271 0  44.0678766556007 381.0860953771871 0  469.6905266180034 142.3890690100806 0  22.68244791668644 338.6995843487432 0  338.699584349159 477.317552078365 0  173.389488083762 18.6681884918202 0  483.4809734778481 179.7121987795732 0  13.50237455842738 306.4709525540879 0  305.9825168523021 487.24416992
[...]
<PointData  Vectors="f_12"> 
<DataArray  type="Float64"  Name="f_12"  NumberOfComponents="3" format="ascii">4.8622451994570748e-01 4.6998417598849046e-01 1.6785824005281152e-01  5.5911618349842473e-01 7.5026250659804239e-01 2.5031403357993370e-01  4.7033426746285673e-01 3.4798030866069041e-01 1.6191994220355443e-01  4.5811865471159002e-01 2.0955936578142512e-01 1.7648389226214986e-01  4.7008739720252146e-01 3.4578050046404929e-01 1.6192688342652237e-01  4.6986789596770140e-01 3.4381234436156644e-01 1.6193780799292107e-01  4.6965474373127464e-01 3.4189228854181769e-01 1.6195167299850077e-01  4.6946392506337953e-01 3.4016472305118767e-01 1.6196766522930553e-01  4.6928773698865778e-01 3.3856202600330410e-01 1.6198550754128066e-01  4.6912687555050786e-01 3.3709307408512978e-01 1.6200381673694120e-01  4.6898068293585476e-01 3.3575294898012320e-01 1.6202258613270720e-01  4.6884719340098513e-01 3.3452504931918109e-01 1.6204140450611687e-01  4.6872776027634572e-01 3.3342301468492580e-01 1.6205952700083970e-01  4.6862317154267913e-01 3.3245498793704353e-01 1.6207673774906775e-01  4.6854500258399201e-01 3.3172873692874238e-01 1.6209084418730058e-01  4.6845476910026135e-01 3.3089134263551057e-01 1.6210632711788098e-01  4.6841114122026239e-01 3.3048362139507820e-01 1.6211527768308590e-01  4.6836000024963476e-01 3.3000739056212886e-01 1.6212475759295863e-01  4.6832678858027410e-01 3.2969740946487364e-01 1.6213130818681709e-01  4.6830451079213486e-01 3.2948982128164328e-01 1.6213554574749628e-01  4.6829094203215821e-01 3.2936472743356515e-01 1.6213710538796541e-01  4.6830182447687169e-01 3.2946633856276158e-01 1.6213512468531241e-01  4.6832726767787580e-01 3.2970366504185761e-01 1.6213055158163203e-01  4.6835160286181277e-01 3.2993273044080090e-01 1.6212464732864421e-01  4.6839058569371966e-01 3.3029821328458048e-01 1.6211618478064893e-01  4.6845019650214992e-01 3.3085416167572468e-01 1.6210477156612987e-01  4.6853327741612916e-01 3.3162656342777325e-01 1.6208998888959245e-01  4.6861381384880901e-01 3.3237580482742701e-01 1.6207502587901865e-01  4.6870636197708510e-01 3.3323483135293197e-01 1.6205857496316731e-01  4.6882856383618310e-01 3.3436377175142473e-01 1.6203946969673086e-01  4.6895300548038410e-01 3.3551109767375142e-01 1.6202073501970485e-01  4.6909572087475793e-01 3.3682154626373451e-01 1.6200141632228504e-01  4.6925486578247116e-01 3.3827720927906724e-01 1.6198235497174820e-01  4.6942136120968142e-01 3.3979514933160299e-01 1.6196402558198889e-01  4.6961932276239077e-01 3.4158966697689985e-01 1.6194658843102730e-01  4.6983011498386201e-01 3.4349148095885407e-01 1.6193178935437841e-01  4.7004415736597838e-01 3.4541538878607631e-01 1.6191874989623206e-01  4.7028992418329763e-01 3.4761017352459761e-01 1.6190969799994215e-01  4.7057015413407749e-01 3.5009478103646519e-01 1.6190708409286220e-01  4.7085938803410632e-01 3.5264451194548341e-01 1.6190949637790375e-01  4.7115489569765984e-01 3.5523461347155599e-01 1.6191692888360451e-01  4.7148633736171236e-01 3.5811700953793640e-01 1.6193422745687563e-01  4.7185596353183290e-01 3.6130686376642157e-01 1.6196267128439548e-01  4.7224221273473127e-01 3.6461419417216145e-01 1.6200152233168805e-01  4.7266371254702738e-01 3.6819111662937931e-01 1.6205597211716818e-01  4.7311662491388601e-01 3.7200181962535689e-01 1.6212530424716168e-01  4.7359956139772547e-01 3.7602761161850307e-01 1.6221205514419101e-01  4.7411134505229230e-01 3.8025299671530582e-01 1.6231837449278219e-01  4.7468691478856800e-01 3.8495150764661051e-01 1.6245552063615679e-01  4.7529619952463298e-01 3.8987337242064807e-01 1.6261760613737691e-01  4.7594788945741284e-01 3.9507392603512725e-01 1.6281099139073446e-01  4.7665328468619922e-01 4.0063830005396661e-01 1.6304053508344407e-01  4.7740444694936890e-01 4.0648628960707317e-01 1.6330753377860682e-01  4.7823484775200065e-01 4.1286220864626877e-01 1.6363028213216180e-01  4.7912425058640384e-01 4.1959351371411918e-01 1.6400282891415940e-01  4.8007172639351020e-01 4.2665694638089807e-01 1.6442896099774068e-01  4.8110929313005191e-01 4.3426533931956873e-01 1.6492978137768433e-01  4.8222634156667410e-01 4.4231648245901661e-01 1.6550694766139223e-01  4.8342377043348417e-01 4.5080084254885899e-01 1.6615245490037464e-01  4.8467232518831099e-01 4.5950265193738998e-01 1.6687202726930025e-01  4.8772307628520145e-01 4.7996624158040779e-01 1.6880197614252990e-01  4.8937702522234477e-01 4.9069145747216703e-01 1.6992720776526088e-01  4.9114697081546621e-01 5.0187504322539034e-01 1.7119664990547004e-01  4.9312229389558282e-01 5.1401426708914089e-01 1.7266683094671131e-01  4.9525218955646444e-01 5.2670490246646695e-01 1.7433636590778612e-01  4.9756173186324543e-01 5.4002314679681374e-01 1.7621321257777037e-01  5.0006628554718413e-01 5.5393309364658350e-01 1.7835123131629432e-01  5.0279352824213985e-01 5.6848540490897936e-01 1.8077283269132557e-01  5.0573961199433803e-01 5.8352481731583072e-01 1.8349737454829909e-01  5.0891494183108177e-01 5.9896269602994512e-01 1.8655632933570784e-01  5.1241477026514137e-01 6.1505213197647879e-01 1.9006712183714719e-01  5.1616003967682333e-01 6.3126788629562403e-01 1.9398548271344343e-01  5.2021014254761122e-01 6.4763449049939070e-01 1.9839100524420594e-01  5.2463574083423681e-01 6.6418619603277529e-01 2.0342614278294890e-01  5.2942181378357989e-01 6.8056071229936888e-01 2.0910697702035680e-01  5.3456957057096643e-01 6.9647044530220137e-01 2.1551632763483472e-01  5.4010106870144603e-01 7.1168099901864390e-01 2.2273104649802614e-01  5.4603372920722459e-01 7.2590228799034728e-01 2.3089458786255146e-01  5.5240005322210595e-01 7.3886788672200010e-01 2.4016851512268864e-01  5.5918611309584443e-01 7.5022384030552491e-01 2.5065265640763063e-01  5.6627104361904024e-01 7.5954416765883059e-01 2.6231908220341277e-01  5.7390486212700464e-01 7.6671126073045759e-01 2.7590243634434430e-01  5.8185868334965585e-01 7.7122368217496295e-01 2.9127760379135098e-01  5.9014897413003176e-01 7.7286899538899378e-01 3.0884478061933140e-01  5.9865978450903246e-01 7.7127469741847487e-01 3.2890099494925368e-01  6.0727680145182017e-01 7.6615547102114157e-01 3.5184575433938714e-01  6.1585993472795442e-01 7.5718697551015179e-01 3.7816301130086000e-01  6.2420061087480094e-01 7.4398638108782322e-01 4.0838042663731328e-01  6.3206745829925837e-01 7.2611375579397197e-01 4.4304424238334239e-01  6.3914172778178724e-01 7.0264094371634434e-01 4.8318877875210930e-01  6.4514023149380750e-01 6.7188065920214324e-01 5.3063282386033739e-01  6.4942928362486341e-01 6.2849928887221063e-01 5.9041937207265482e-01  6.4931880401786102e-01 5.5867012832016416e-01 6.7452645254468446e-01  6.3543014078948179e-01 4.3079512565900213e-01 7.9408148833718062e-01  5.9291740647951074e-01 2.4159708594188944e-01 8.5984078530738794e-01  5.2977850946866056e-01 1.0966638413646107e-01 6.8251233574226433e-01  4.8424711462481052e-01 8.6345552343955273e-02 4.2067024460535007e-01  4.6332783983130232e-01 1.1936549989640911e-01 2.6599148520080074e-01  4.5842328954201256e-01 1.8468255497178632e-01 1.9702571352815595e-01  4.6402568476802458e-01 2.8241478835452005e-01 1.7167050015633165e-01  4.7642117731854133e-01 3.9249071174514427e-01 1.7180789008769676e-01  4.8416662745121719e-01 4.5147674728525855e-01 1.7346125039174903e-01  4.8660954519251259e-01 4.6947407300886984e-01 1.7526173142141208e-01  4.8095946266510087e-01 4.3220235987215461e-01 1.7069390113605248e-01  4.7117503556068124e-01 3.5115117157406595e-01 1.6835921379190100e-01  4.6179857567198390e-01 2.5323728560169684e-01 1.7478887732255002e-01  4.5781288629019778e-01 1.7030549978171225e-01 2.0021866748288591e-01  4.6177771576102017e-01 1.1593476841446207e-01 2.5670603636981032e-01  4.7568436358495880e-01 8.8675154638375428e-02 3.6263474030575976e-01  5.0464350976459016e-01 9.1129481693542583e-02 5.4761896465985560e-01  5.5644291022578640e-01 1.6208555299870694e-01 7.9201080256924983e-01  6.1085010604406265e-01 3.9262918607172742e-01 8.0126327019738619e-01  6.0661873396849708e-01 6.4267687340051416e-01 5.1075063595537662e-01  5.4030788945734742e-01 6.6920604641723813e-01 2.7596367502556168e-01  4.8141706619816255e-01 4.2704793211357778e-01 1.7968420519273837e-01  4.6218281485336704e-01 2.6401388145359206e-01 1.6810744933200417e-01  4.5739273886635212e-01 1.8738334054635547e-01 1.8484789592160358e-01  4.5695693841024615e-01 1.7030689598600776e-01 1.9209126329216364e-01  4.5700018912355778e-01 1.6140004105171585e-01 1.9749991766064154e-01  4.5711273173960326e-01 1.5445216940753576e-01 2.0218293762447911e-01  4.5723936327618353e-01 1.4960615485327539e-01 2.0574083999510748e-01  4.5734806439930253e-01 1.4673507666288349e-01 2.0805459105987020e-01  4.5740038568154429e-01 1.4549655972341041e-01 2.0908495313615530e-01  4.5739276896914410e-01 1.4566291173550772e-01 2.0894340885264950e-01  4.5732442970130494e-01 1.4733632146216616e-01 2.0756482517840796e-01  4.5722254131901435e-01 1.5001927752634009e-01 2.0540432384104609e-01  4.5708719241852547e-01 1.5528098964431034e-01 2.0155449752204424e-01  4.5700102147807792e-01 1.6250251366556731e-01 1.9687093314410553e-01  4.5703317392208420e-01 1.7232747812765062e-01 1.9140074446999203e-01  4.5728979558419619e-01 1.8529999910234321e-01 1.8542032316454798e-01  4.5791395873165297e-01 2.0365083831878070e-01 1.7850760812846017e-01  4.5974142560619302e-01 2.3693036449908236e-01 1.7018658631076411e-01  4.6649454363327464e-01 3.0998660109938281e-01 1.6514474660054895e-01  4.9112559666247019e-01 4.9598234618694353e-01 1.8600676855001586e-01  5.5156583223258671e-01 7.0093472215491670e-01 2.8540600493739965e-01  6.1306680488590637e-01 6.5858605018426408e-01 5.0374210150050358e-01  6.1864150048176347e-01 4.3409824865229174e-01 7.7348621660001582e-01  5.7125648553681985e-01 1.9918073142494794e-01 8.2788178332341278e-01  5.1913940523806357e-01 1.0077623201573691e-01 6.2954148766296214e-01  4.8850746527175298e-01 8.2411869498200813e-02 4.4954609596129974e-01  4.7270950110224991e-01 8.6718699753343467e-02 3.4411661550104627e-01  4.6431353423342303e-01 9.8995181377062383e-02 2.8264056258333820e-01  4.5992899462248876e-01 1.1418151170207574e-01 2.4594088560296659e-01  4.5799619510507328e-01 1.2653150152047885e-01 2.2668280852587919e-01  4.5755910748817341e-01 1.3171992709866834e-01 2.2101506763199466e-01  4.5824964939431040e-01 1.2661450400010502e-01 2.2852076777035352e-01  4.6077506081590375e-01 1.1208102105148647e-01 2.5320864749543454e-01  4.6697712137047231e-01 9.4487573932120414e-02 3.0328111192583507e-01  4.8038596457310706e-01 8.3660882422518415e-02 3.9587525776563304e-01  5.0560759524788146e-01 8.4546692956541797e-02 5.5456814930349219e-01  5.4857403504622904e-01 1.3138651997946313e-01 7.6093904099622245e-01  5.9770424654705234e-01 2.5214763212092905e-01 8.6644136670978456e-01  6.3170581343578003e-01 4.0540561826202393e-01 8.1040417609464055e-01  6.4693664097661796e-01 5.2174318972166733e-01 7.1320748893851427e-01  6.5071085980473464e-01 5.9759163473211263e-01 6.2984535531888453e-01  6.4902981693410611e-01 6.4450406455439613e-01 5.6950732629165346e-01  6.4557751239380512e-01 6.7371061491531592e-01 5.2844878579085963e-01  6.4148667034452467e-01 6.9537180563767342e-01 4.9540894487013698e-01  6.3680894561650092e-01 7.1363139110665574e-01 4.6557125666396276e-01  6.3177715169114701e-01 7.2852374991266877e-01 4.3932704292417246e-01  6.2643143320320971e-01 7.4080228561110317e-01 4.1569958611671426e-01  6.2080757348611226e-01 7.5097052165647427e-01 3.9400698455107963e-01  6.1483872302780029e-01 7.5929208245475666e-01 3.7367490875551507e-01  6.0899688060951418e-01 7.6529567858749004e-01 3.5594097164318222e-01  6.0298462133888953e-01 7.6964521024752441e-01 3.3935922830763698e-01  5.9705164211234174e-01 7.7225500953392157e-01 3.2432877414261913e-01  5.9106081130123456e-01 7.7319320532672897e-01 3.1039536073521723e-01  5.8527308828101876e-01 7.7259797109300665e-01 2.9785104485195968e-01  5.7969004609405861e-01 7.7054765928268787e-01 2.8657041381120296e-01  5.7426168135192091e-01 7.6718124846163560e-01 2.7624644214374733e-01  5.6900277878879690e-01 7.6258599597885468e-01 2.6680714552602219e-01  5.6395453265070039e-01 7.5690957642269641e-01 2.5818496653520207e-01  5.5450545989397038e-01 7.4278803846057340e-01 2.4314213701059176e-01  5.5011890586876744e-01 7.3458890567958357e-01 2.3660068562900699e-01  5.4590539965197504e-01 7.2569602262755306e-01 2.3056632737270097e-01  5.4191468093205031e-01 7.1631331812347654e-01 2.2505035620537112e-01  5.3812518235693629e-01 7.0651506806840991e-01 2.1999596868649993e-01  5.3452935699030679e-01 6.9639404814102390e-01 2.1535720091426075e-01  5.3111642689634309e-01 6.8602065270436785e-01 2.1109368796530464e-01  5.2788514663434660e-01 6.7549451253978565e-01 2.0717657512431703e-01  5.2482122900240824e-01 6.6486447006943095e-01 2.0357099672081022e-01  5.2191699229095501e-01 6.5418981425397205e-01 2.0024891043495358e-01  5.1916384135407823e-01 6.4351992065872232e-01 1.9718966925612438e-01  5.1657124366631313e-01 6.3297712178294308e-01 1.9438083067444026e-01  5.1408373770160898e-01 6.2239641525878975e-01 1.9175727720527908e-01  5.1172293255806089e-01 6.1193422020086352e-01 1.8933324590492834e-01  5.0950342299537688e-01 6.0170737357469550e-01 1.8711290539100331e-01  5.0735218301421137e-01 5.9143317777796245e-01 1.8501739425424579e-01  5.0531538917544572e-01 5.8137349872953437e-01 1.8308556004495410e-01  5.0341685368149702e-01 5.7169155515434700e-01 1.8132782922267968e-01  5.0159161764963833e-01 5.6210837565713434e-01 1.7968987630031741e-01  4.9985338151755099e-01 5.5272958033082142e-01 1.7816310661801874e-01  4.9819564619763379e-01 5.4354882301489860e-01 1.7674913918508464e-01  4.9661763648983620e-01 5.3458953437341072e-01 1.7544063271056334e-01  4.9510833100565993e-01 5.2581934844257805e-01 1.7422243852695374e-01  4.9366258433891996e-01 5.1722852097594951e-01 1.7308967675119669e-01  4.9229965315079877e-01 5.0895789435721817e-01 1.7205413278236562e-01  4.9099190036592805e-01 5.0085949473948477e-01 1.7108985490924369e-01  4.8973491664932578e-01 4.9292930314362160e-01 1.7019201984505178e-01  4.8855471567715941e-01 4.8534193807017045e-01 1.6937721069509276e-01  4.8741305830494602e-01 4.7787363774041142e-01 1.6861655012365900e-01  4.8632291663713989e-01 4.7062291611556356e-01 1.6791325569532126e-01  4.8528641377535803e-01 4.6361642010531151e-01 1.6727057404368589e-01  4.8429596930705626e-01 4.5681622258021665e-01 1.6667964338730734e-01  4.8335073685025759e-01 4.5022905096373522e-01 1.6613823921744109e-01  4.8244435119290863e-01 4.4382064073417293e-01 1.6564133593145891e-01  4.8157027708505828e-01 4.3755458332748470e-01 1.6518261366963985e-01  4.8075210021484988e-01 4.3160978647933690e-01 1.6477374077245643e-01  4.7997436196451143e-01 4.2588415091681203e-01 1.6440482741993365e-01  4.7921087687617481e-01 4.2019441813334873e-01 1.6406026089249023e-01  4.7849414548024244e-01 4.1478668577956368e-01 1.6375552177481542e-01  4.7781878587532689e-01 4.0962943883002534e-01 1.6348634491646546e-01  4.7716852706352808e-01 4.0460857148312129e-01 1.6324257640104683e-01  4.7655124208424399e-01 3.9979002901119665e-01 1.6302629174511463e-01  4.7595749816687455e-01 3.9510473247362088e-01 1.6283410437852164e-01  4.7540410010308909e-01 3.9069352367831012e-01 1.6266770584944126e-01  4.7487014403469824e-01 3.8639365796398395e-01 1.6252183572024270e-01  4.7436700396918718e-01 3.8230272565354123e-01 1.6239674048208039e-01  4.7388590575464618e-01 3.7835509019880825e-01 1.6228804788806162e-01  4.7342408993347312e-01 3.7453167238215312e-01 1.6219519731373622e-01  4.7299697071247776e-01 3.7096188963265664e-01 1.6212223337451070e-01  4.7259516590681366e-01 3.6757589006720198e-01 1.6206216927388015e-01  4.7220526008941210e-01 3.6426476062761892e-01 1.6201272879339629e-01  4.7184343460410094e-01 3.6116702787493093e-01 1.6197590643650045e-01  4.7150645385246182e-01 3.5825950502614129e-01 1.6195029323364221e-01  4.7118624812118970e-01 3.5547780498060499e-01 1.6193208378246229e-01  4.7088364052591825e-01 3.5283139459035218e-01 1.6192181486747081e-01  4.7060494404222053e-01 3.5037757472566017e-01 1.6191818418499510e-01  4.7638250460887865e-01 3.9845608895682189e-01 1.6297469128412673e-01  6.4083228594928576e-01 6.9728575708591967e-01 4.9220964686478474e-01  4.6965159044658467e-01 3.4187267714111724e-01 1.6194944421704363e-01  5.6215354452549837e-01 7.5452783153518932e-01 2.5525353366173353e-01  4.7058992902658270e-01 3.5023813397263714e-01 1.6192234174041914e-01  5.1411130435269747e-01 5.7965433445570280e-01 2.3522315002605040e-01  4.7405376000489730e-01 3.7976228527208356e-01 1.6231602964116321e-01  4.8724914964526889e-01 4.7683684359467438e-01 1.6850502579454738e-01  4.5779772850213574e-01 2.0064173378162253e-01 1.7964615097573144e-01  6.3654389485428975e-01 7.1168297969093586e-01 4.6802306280956790e-01  4.8306435738103393e-01 4.4820642275851297e-01 1.6598348883708347e-01  4.6354524627367499e-01 1.5405650544255894e-01 2.4677445557650726e-01  5.9405761275540825e-01 2.5064560420226817e-01 8.6608413163957321e-01  4.8929243449958382e-01 4.9009138921489287e-01 1.6988961246636478e-01  5.7878452023701854e-01 7.6976969451754096e-01 2.8526328248495642e-01  4.6877017427629020e-01 3.3381522304310385e-01 1.6205400645774756e-01  4.7236841906472071e-01 1.0010219334818335e-01 3.3401009463467229e-01  4.8239845896521644e-01 4.3156487169025426e-01 1.8049731690528661e-01  4.6841762981648988e-01 3.3054003025018830e-01 1.6211718051142909e-01  4.9914963452152888e-01 5.4884918721802678e-01 1.7756562287741370e-01  5.3798344571588241e-01 7.0603637238411487e-01 2.1996302232822731e-01  5.1322469511423074e-01 6.1863903925553598e-01 1.9087961469150908e-01  4.6849267993147553e-01 3.3123616040754877e-01 1.6210407918876252e-01  4.5701588124935544e-01 1.6249295400980257e-01 1.9695857358751120e-01  5.1152673559507178e-01 6.1104676231789501e-01 1.8918870272417240e-01  5.2689458675815504e-01 6.7209587091601775e-01 2.0602363945667967e-01  4.6892129298755075e-01 3.3519908581143354e-01 1.6203558108477120e-01  4.7333735449031394e-01 3.7380191034987398e-01 1.6218453184918030e-01  6.0679956373548805e-01 7.6696392399243152e-01 3.4987572170089165e-01  4.7977813764968547e-01 9.4410205906332326e-02 3.8609595817081305e-01  4.7805711886203439e-01 4.1149040710832457e-01 1.6356941121942351e-01  4.7108946558274312e-01 3.5465017608255522e-01 1.6192194850137931e-01  4.5732109357782469e-01 1.4786184203810002e-01 2.0723450488441575e-01  4.9939188128633738e-01 5.5021155397992572e-01 1.7778882897271756e-01  5.4052570645283349e-01 7.1279659681759355e-01 2.2320548307830473e-01  4.6948987487779342e-01 3.4039217760586687e-01 1.6197003597145312e-01  4.6480233319715453e-01 2.0481941907667964e-01 2.2484268225919393e-01  6.3091693634183243e-01 4.1189809006891442e-01 8.0656894900375076e-01  4.7178974716430111e-01 3.6069747650433509e-01 1.6197612139287049e-01  4.7902342027348027e-01 4.1878156218104073e-01 1.6398331674319319e-01  5.8276068464347652e-01 7.7176688570724794e-01 2.9278277919130757e-01  5.8850516287422650e-01 6.6866032508414786e-01 4.3687040226486967e-01  4.8182162987919608e-01 4.3939502416632442e-01 1.6530691371254697e-01  4.6858503754864317e-01 3.3209591641067610e-01 1.6208740353261478e-01  4.7586859731941483e-01 3.9442810070820855e-01 1.6279751789283003e-01  4.5705440332589764e-01 1.5936125517941821e-01 1.9899882268589400e-01  4.6801340026499477e-01 2.8587844533017381e-01 1.9287062262624421e-01  4.9261637038688555e-01 5.1091729846941425e-01 1.7230363501145141e-01  6.1281726967367267e-01 7.6067480996342407e-01 3.6860367441555930e-01  4.7474523271378077e-01 3.8537292664951600e-01 1.6249442186795993e-01  4.7034341472422814e-01 3.4807338995980969e-01 1.6191645112807498e-01  4.9315508201965935e-01 5.1415814737438459e-01 1.7270855870800222e-01  5.7356964015949419e-01 2.2805014445813829e-01 8.2494926578553807e-01  5.0450028636092370e-01 5.7724458379263921e-01 1.8233534042337515e-01  6.2455404396283321e-01 7.4413678890164514e-01 4.0861533278082646e-01  4.7221712992737874e-01 3.6438801818370903e-01 1.6200632481948468e-01  4.8598540562