<?xml version="1.0"?>
<VTKFile type="UnstructuredGrid"  version="0.1"  >
<UnstructuredGrid>
<Piece  NumberOfPoints="4940" NumberOfCells="9650">
<Points>
<DataArray  type="Float64"  NumberOfComponents="3"  format="ascii">500 250 0  0 250 0  250 500 0  250 0 0  256.8885856082646 499.9050767557906 0  263.7719401218049 499.6203791065173 0  270.6448364229772 499.1461232471188 0  277.5020553257866 498.4826693209355 0  284.3383895508592 497.6305211460281 0  291.1486476865662 496.5903258312597 0  297.9276581259182 495.3628732847843 0  304.6702729675493 493.9490956196674 0  311.3713719748657 492.3500664368026 0  318.0258664141369 490.5670000199653 0  324.6287029687753 488.6012504015818 0  331.1748675330201 486.4543103455647 0  337.6593890460416 484.1278102064655 0  344.0773432429536 481.6235166997244 0  350.4238564271474 478.9433315480048 0  356.694109139292 476.0892900492477 0  362.88333985546 473.0635595140469 0  368.9868485575419 469.8684376402048 0  375.0000003153078 466.5063507640667 0  380.9182288257928 462.9798520074548 0  386.7370398729688 459.2916193419558 0  392.4520147244077 455.444453565817 0  398.0588135356345 451.4412761437442 0  403.5531785622926 447.285127045646 0  408.9309374414144 442.9791624087773 0  414.1880064015299 438.5266521049243 0  419.3203932989752 433.9309773069245 0  424.324200661095 429.1956279150535 0  429.1956286596235 424.3241998957182 0  433.9309780058756 419.3203925397119 0  438.5266527445345 414.1880056671062 0  442.9791630130591 408.9309367076756 0  447.2851276060475 403.5531778422888 0  451.4412766621026 398.0588128303826 0  455.4444540361634 392.4520140460735 0  459.2916197786263 386.7370392045948 0  462.9798524073514 380.9182281752347 0  466.5063511234856 374.9999996927758 0  469.8684379657123 368.9868479560565 0  473.0635598144817 362.8833392617846 0  476.0892903190255 356.6941085676214 0  478.9433317963513 350.4238558609745 0  481.6235169154735 344.0773427117675 0  484.12781039012 337.6593885555221 0  486.4543105028062 331.1748670749914 0  488.601250531677 324.6287025528375 0  490.5670001317469 318.0258660188321 0  492.3500665291326 311.3713716102628 0  493.949095695951 304.6702726271575 0  495.3628733416623 297.9276578347343 0  496.5903258712341 291.1486474470129 0  497.6305211749058 284.3383893426084 0  498.4826693388848 277.502055163614 0  499.1461232580606 270.6448362909296 0  499.6203791109319 263.7719400417897 0  499.9050767571306 256.8885855596534 0  499.9050767559877 243.1114143988867 0  499.6203791069493 236.2280598860241 0  499.1461232485393 229.3551635941651 0  498.4826693235677 222.4979446979962 0  497.6305211491849 215.6616104719064 0  496.5903258357701 208.8513523404629 0  495.3628732906988 202.0723419043604 0  493.9490956264813 195.3297270628552 0  492.3500664487791 188.6286280724281 0  490.5670000344809 181.9741336371959 0  488.6012504175981 175.3712970824318 0  486.4543103623226 168.8251325157939 0  484.1278102222298 162.3406109960628 0  481.6235167152198 155.9226567951971 0  478.9433315621651 149.5761436051346 0  476.0892900516498 143.3058908657982 0  473.063559513628 137.1166601437124 0  469.8684376406648 131.0131514433083 0  466.5063507675389 124.9999996907064 0  462.9798520124137 119.0817711822745 0  459.2916193464549 113.2629601339176 0  455.4444535642773 107.5479852733717 0  451.4412761528674 101.9411864767781 0  447.2851270583545 96.44682145403524 0  442.9791624165781 91.06906256805769 0  438.5266521117469 85.81199360630404 0  433.9309773156125 80.67960671046254 0  429.1956279150353 75.67579933888632 0  424.3241998888952 70.80437133373906 0  419.3203925223282 66.06902197812161 0  414.1880056411937 61.47334723289828 0  408.9309366751728 57.0208369601728 0  403.5531778009394 52.71487236176898 0  398.058812796452 48.55872331295853 0  392.4520140187753 44.55554594490843 0  386.7370391799677 40.70838020528396 0  380.9182281475119 37.02014757560744 0  374.9999996718656 33.49364886444181 0  368.9868479340393 30.13156202237255 0  362.8833392380029 26.93644017348339 0  356.6941085456942 23.91070967062674 0  350.4238558420009 21.0566681953261 0  344.0773426899492 18.37648307566465 0  337.6593885328982 15.87218960140942 0  331.1748670549786 13.54568949032341 0  324.6287025315056 11.39874946165088 0  318.0258660010876 9.432999863235466 0  311.3713716017894 7.649933468721599 0  304.6702726190621 6.050904302234756 0  297.9276578269805 4.637126656823085 0  291.148647441857 3.409674127905504 0  284.3383893425031 2.369478825079682 0  277.502055159398 1.517330660648639 0  270.6448362875833 0.853876741662134 0  263.7719400401456 0.3796208889774277 0  256.8885855592052 0.09492324285704967 0  243.1114143979462 0.09492324403817065 0  236.2280598850882 0.3796208931023841 0  229.3551635938215 0.8538767514891958 0  222.4979446968584 1.517330676558146 0  215.6616104703111 2.369478851036291 0  208.8513523382973 3.409674164591252 0  202.0723419066374 4.637126708856528 0  195.3297270659513 6.050904372824903 0  188.628628074828 7.649933550613184 0  181.9741336377093 9.432999965373938 0  175.3712970793675 11.39874958336037 0  168.8251325057572 13.54568964112298 0  162.340610986655 15.87218978129263 0  155.9226567874317 18.37648328793418 0  149.576143602509 21.05666843898663 0  143.3058908718157 23.91070994551046 0  137.1166601505524 26.93644048291054 0  131.0131514451933 30.13156235831508 0  124.9999996848412 33.49364923584736 0  119.0817711715717 37.0201479941652 0  113.2629601211624 40.70838066187849 0  107.5479852622251 44.55554644345162 0  101.9411864693332 48.55872385260452 0  96.44682143286516 52.71487295812284 0  91.06906254351222 57.02083760363669 0  85.81199358272519 61.4733479087879 0  80.67960667988106 66.06902271253972 0  75.67579930062769 70.80437212218331 0  70.80437129287643 75.67580015310926 0  66.06902193673014 80.67960752263491 0  61.47334718684866 85.81199441168215 0  57.02083692524275 91.0690633672404 0  52.71487232786438 96.44682224262129 0  48.55872328070024 101.941187247437 0  44.55554591578033 107.5479860232332 0  40.7083801742321 113.2629608675606 0  37.02014754791168 119.0817718975441 0  33.49364883372994 125.000000381329 0  30.13156199866361 131.0131521097709 0  26.9364401549829 137.1166607985551 0  23.91070965524918 143.3058914868915 0  21.05666818346614 149.576144185037 0  18.37648306853811 155.9226573275967 0  15.8721895918909 162.3406114925245 0  13.54568948170046 168.8251329701392 0  11.39874945301878 175.3712974960928 0  9.432999857087736 181.9741340206533 0  7.649933466342702 188.6286284076045 0  6.050904301250966 195.3297273853278 0  4.637126656808988 202.0723421730917 0  3.409674127767772 208.8513525589684 0  2.369478824521138 215.6616106615248 0  1.517330660909465 222.4979448382452 0  0.8538767414496533 229.355163714981 0  0.3796208887135322 236.2280599646376 0  0.09492324266324204 243.1114144478261 0  0.0949232442452228 256.8885856095658 0  0.3796208935834784 263.7719401236316 0  0.8538767530323526 270.6448364248016 0  1.517330679476544 277.5020553295092 0  2.369478854618649 284.3383895555228 0  3.409674170191892 291.1486476952655 0  4.6371267162381 297.9276581311522 0  6.050904381420935 304.6702729724059 0  7.649933562385399 311.3713719716595 0  9.43299997979841 318.0258664133013 0  11.3987495994252 324.6287029719946 0  13.54568965885832 331.174867545904 0  15.87218979367188 337.6593890464085 0  18.37648329843151 344.0773432384132 0  21.05666844777872 350.423856417535 0  23.91070995156048 356.6941091410045 0  26.93644048988043 362.8833398632205 0  30.13156235982007 368.9868485575877 0  33.49364924138357 375.0000003247478 0  37.0201480006036 380.9182288389023 0  40.70838066758398 386.7370398875706 0  44.55554644477201 392.4520147396792 0  48.55872386086904 398.0588135419111 0  52.71487295981296 403.5531785693063 0  57.02083760525949 408.9309374584583 0  61.47334790862246 414.1880064170849 0  66.06902271205095 419.320393319588 0  70.80437211216579 424.3242006890749 0  75.67580013809859 429.195628692521 0  80.6796075127923 433.930978054209 0  85.81199439754931 438.5266528008431 0  91.06906334717917 442.9791630582355 0  96.44682221438322 447.2851276501571 0  101.9411872243843 451.441276702356 0  107.5479859945825 455.4444540643537 0  113.2629608446994 459.2916198108319 0  119.0817718768376 462.9798524393601 0  125.0000003647644 466.5063511567065 0  131.0131521012763 469.8684379967393 0  137.1166607840049 473.0635598376539 0  143.3058914748804 476.0892903390826 0  149.5761441732679 478.9433318113714 0  155.9226573130112 481.6235169255377 0  162.3406114779862 484.1278104026658 0  168.8251329570439 486.4543105138039 0  175.3712974805475 488.601250542119 0  181.9741340135204 490.5670001408953 0  188.6286284005059 492.3500665318597 0  195.3297273788229 493.9490956972913 0  202.0723421640089 495.3628733414168 0  208.8513525529672 496.5903258712308 0  215.6616106544547 497.6305211744985 0  222.4979448327038 498.4826693384772 0  229.3551637102845 499.1461232581612 0  236.2280599621369 499.6203791111485 0  243.1114144470173 499.9050767573145 0  155.2373389820306 474.8197567317462 0  25.36256300907667 153.9152755065208 0  432.3709625126712 412.6214396304305 0  6.013151705810699 246.637913163471 0  246.6379131630491 493.986848294322 0  338.6995838441862 22.68244767887072 0  477.3175523131281 338.6995838660569 0  493.9868482700757 246.6379131399102 0  246.6201155078769 6.218451882810491 0  417.6179310263282 72.7156044707053 0  102.2232990934413 445.0100869616822 0  63.66330858966404 92.20354579482142 0  391.3105220491464 50.73522820883105 0  72.79295043967942 418.0702734974704 0  448.290574428537 108.25674339002 0  402.4604651193511 440.7462829841712 0  97.55317348421397 59.11376320116034 0  136.7376477664901 33.58246472647134 0  363.3288394375288 465.6947312928271 0  44.0678766556007 381.0860953771871 0  469.6905266180034 142.3890690100806 0  22.68244791668644 338.6995843487432 0  338.699584349159 477.317552078365 0  173.389488083762 18.6681884918202 0  483.4809734778481 179.7121987795732 0  13.50237455842738 306.4709525540879 0  305.9825168523021 487.24416992
[...]
<PointData  Vectors="f_12"> 
<DataArray  type="Float64"  Name="f_12"  NumberOfComponents="3" format="ascii">5.9711379794638608e-01 7.7247315862260368e-01 3.2411851545666054e-01  6.4679927729017039e-01 6.6494954286755537e-01 5.4140211827938933e-01  5.7147805584842593e-01 7.6500364542878452e-01 2.7100069411693845e-01  5.0811678320760145e-01 5.9551973296236627e-01 1.8563258795699383e-01  5.7090872127284475e-01 7.6449464631140074e-01 2.6998339557301720e-01  5.7040165472262760e-01 7.6402558960663003e-01 2.6908400611692684e-01  5.6989688212316036e-01 7.6354825557832273e-01 2.6819129010969150e-01  5.6944362783819713e-01 7.6310884540485047e-01 2.6739457914029557e-01  5.6901953778411296e-01 7.6268836383002225e-01 2.6665258597197222e-01  5.6862874429541233e-01 7.6229349013728609e-01 2.6597093577128322e-01  5.6826976811592211e-01 7.6192447318714085e-01 2.6534712848338343e-01  5.6793692921204808e-01 7.6157694547319688e-01 2.6477040893516773e-01  5.6763539978376820e-01 7.6125752137463998e-01 2.6424937823150291e-01  5.6736822912697527e-01 7.6097077614452768e-01 2.6378922495780366e-01  5.6717324158355498e-01 7.6075735759833107e-01 2.6345576593752718e-01  5.6692935907231168e-01 7.6049281489257103e-01 2.6303510908177502e-01  5.6682234295296874e-01 7.6037204023433658e-01 2.6285404056714107e-01  5.6668088936176864e-01 7.6021596191050256e-01 2.6261132093716250e-01  5.6658622289952454e-01 7.6011037259384795e-01 2.6244975281744254e-01  5.6651707964694831e-01 7.6003368113779279e-01 2.6233110735070853e-01  5.6646642518427315e-01 7.5997853765875989e-01 2.6224212629473048e-01  5.6648281088601371e-01 7.5999658335023890e-01 2.6227049754972559e-01  5.6653555636644337e-01 7.6005528202630690e-01 2.6236168419272482e-01  5.6657553403749383e-01 7.6010226817447579e-01 2.6242756984693022e-01  5.6665251398001915e-01 7.6019066504039146e-01 2.6255683102087557e-01  5.6678335764391119e-01 7.6033672364865357e-01 2.6278015178029546e-01  5.6697768535959836e-01 7.6055034751202266e-01 2.6311383178731096e-01  5.6715283357718405e-01 7.6074444206111291e-01 2.6341201741357445e-01  5.6735384540714129e-01 7.6096541306569210e-01 2.6375458882485420e-01  5.6763552583235755e-01 7.6126824780479785e-01 2.6423945837962870e-01  5.6791093948099503e-01 7.6156287758670693e-01 2.6471277495481493e-01  5.6822882115821327e-01 7.6189684242375644e-01 2.6526167289938457e-01  5.6858338526669849e-01 7.6226366031710013e-01 2.6587627965411137e-01  5.6894539798074428e-01 7.6263360768051525e-01 2.6650409946541598e-01  5.6938556205860791e-01 7.6307120402940465e-01 2.6727397181002405e-01  5.6984685987766681e-01 7.6352113093631302e-01 2.6808363088653331e-01  5.7029996849014752e-01 7.6395658293717617e-01 2.6887836121142139e-01  5.7082612390507936e-01 7.6444624175193110e-01 2.6980920462068686e-01  5.7142975079323910e-01 7.6498809564101022e-01 2.7088773025200225e-01  5.7203663333788768e-01 7.6551815516995325e-01 2.7197575538100971e-01  5.7263768125789605e-01 7.6602925766999097e-01 2.7305609677449377e-01  5.7331283815601319e-01 7.6657896718280394e-01 2.7428142075837914e-01  5.7406616816685652e-01 7.6716583109474923e-01 2.7566052307027217e-01  5.7483317741455464e-01 7.6773748843717382e-01 2.7707361658882890e-01  5.7566028397814450e-01 7.6832051878885144e-01 2.7861342829120184e-01  5.7653533351231889e-01 7.6890382026254711e-01 2.8025542184201341e-01  5.7745018998716957e-01 7.6947630546131240e-01 2.8198755263305370e-01  5.7839798905443274e-01 7.7003048120119377e-01 2.8379988829858221e-01  5.7945803891745251e-01 7.7059362690987099e-01 2.8585394790070928e-01  5.8055421883210601e-01 7.7112637337677936e-01 2.8800086667911251e-01  5.8169529191250346e-01 7.7161879655782506e-01 2.9026501504764574e-01  5.8290949226818012e-01 7.7208174143156805e-01 2.9270512687512817e-01  5.8416416394975912e-01 7.7248807832386024e-01 2.9526108596122785e-01  5.8553053781050579e-01 7.7284664359426736e-01 2.9809242726857643e-01  5.8695291323857390e-01 7.7313171226371113e-01 3.0108619254225161e-01  5.8842091711605282e-01 7.7333274159075316e-01 3.0422655956070954e-01  5.8999042904760002e-01 7.7343550827211383e-01 3.0765212524484770e-01  5.9162767126255000e-01 7.7342490372396622e-01 3.1129779428114962e-01  5.9332786386706782e-01 7.7329822826357841e-01 3.1514482212539691e-01  5.9503122901355499e-01 7.7305676186418115e-01 3.1908649191860616e-01  5.9903366602062258e-01 7.7185872178831838e-01 3.2878083429658816e-01  6.0106334679382889e-01 7.7098784340808302e-01 3.3388828286676098e-01  6.0313474489251062e-01 7.6989177736591941e-01 3.3926862674896752e-01  6.0537677744382701e-01 7.6847647426925147e-01 3.4527109378297915e-01  6.0767808488410102e-01 7.6676141815991206e-01 3.5165989992430879e-01  6.1006290903163896e-01 7.6470836581115231e-01 3.5852142838138712e-01  6.1250989047602455e-01 7.6227058426641647e-01 3.6587403822819037e-01  6.1504012289563437e-01 7.5939768004012353e-01 3.7381815508264543e-01  6.1761858430173378e-01 7.5608074961398108e-01 3.8230458389180677e-01  6.2022849691073634e-01 7.5229068366454621e-01 3.9134732643827352e-01  6.2293459970299103e-01 7.4783593060595366e-01 4.0129732911730365e-01  6.2563057450348669e-01 7.4284675242440301e-01 4.1182742401665784e-01  6.2833472543160052e-01 7.3720357951578286e-01 4.2312056623591715e-01  6.3107284735489944e-01 7.3071756381891861e-01 4.3547322366938829e-01  6.3378962827719765e-01 7.2339788021693552e-01 4.4878882878555965e-01  6.3644235916090919e-01 7.1519436136405912e-01 4.6308275951295563e-01  6.3901195628990815e-01 7.0602037452216904e-01 4.7843702801500937e-01  6.4145736131351949e-01 6.9575278594591761e-01 4.9496045563139551e-01  6.4374941390512552e-01 6.8421586967167114e-01 5.1283157763509735e-01  6.4583881069439508e-01 6.7134218358513709e-01 5.3204067150854306e-01  6.4763865467007020e-01 6.5733118668136437e-01 5.5219226045782743e-01  6.4914188386018978e-01 6.4123234570951970e-01 5.7443443122408444e-01  6.5022299573048903e-01 6.2344244412707939e-01 5.9800418790927956e-01  6.5082081888856969e-01 6.0351830890370672e-01 6.2326032490998451e-01  6.5081532148644006e-01 5.8135005062669509e-01 6.4998014915678448e-01  6.5008952503510242e-01 5.5671028757540886e-01 6.7802579407485253e-01  6.4850961078689284e-01 5.2933793820106856e-01 7.0716263371682975e-01  6.4592835575984420e-01 4.9904756278300644e-01 7.3692746564694411e-01  6.4218874767182288e-01 4.6568299948013675e-01 7.6657228288342327e-01  6.3711366349534726e-01 4.2927742445949241e-01 7.9495071210030110e-01  6.3057616305268149e-01 3.9012267483883079e-01 8.2048098505622169e-01  6.2252149502268883e-01 3.4901634559541822e-01 8.4094959803637659e-01  6.1305876467504994e-01 3.0733449738038066e-01 8.5426167169672462e-01  6.0221053342394326e-01 2.6617985325520743e-01 8.5784930037893881e-01  5.9044797234834412e-01 2.2772700935054338e-01 8.5048151908224423e-01  5.7908108390230473e-01 1.9557438452492473e-01 8.3401315166512036e-01  5.6883594455888775e-01 1.7055997072275358e-01 8.1134619245457373e-01  5.6015389111516256e-01 1.5212029636945881e-01 7.8694624347087228e-01  5.5479788684730780e-01 1.4124768703111595e-01 7.7090684997543668e-01  5.5287667568194232e-01 1.3687442011661433e-01 7.6575782168152828e-01  5.5365525174515762e-01 1.3868122086951223e-01 7.6866279691198192e-01  5.6333509214053379e-01 1.5858662040456586e-01 7.9905644396853759e-01  5.8117006193390697e-01 2.0355653946395852e-01 8.3970900448688579e-01  6.0748646076881252e-01 2.9197603812238804e-01 8.5848319857035049e-01  6.3302853128994341e-01 4.2497846320295446e-01 7.9581989024210831e-01  6.4588338594720773e-01 5.6256960712176929e-01 6.6769763308585772e-01  6.4183875706699234e-01 6.6810096715698453e-01 5.3182017598464848e-01  6.2595226767088108e-01 7.3325339297512049e-01 4.2522910050427876e-01  6.0560040178434627e-01 7.6434076336218071e-01 3.5163414007141841e-01  5.8548252749095331e-01 7.7098697842512021e-01 3.0094007022959929e-01  5.6751753759806867e-01 7.6073145845448875e-01 2.6534293802450071e-01  5.5235744075458815e-01 7.3889604499037154e-01 2.4051270523948307e-01  5.3979092986019095e-01 7.1108601378425762e-01 2.2254468312904302e-01  5.2934339921720497e-01 6.8062085501008374e-01 2.0916456082100274e-01  5.2079804593484258e-01 6.5019872564690462e-01 1.9907698881601033e-01  5.1377402935868455e-01 6.2142247967273856e-01 1.9143691396868182e-01  5.0383065455084453e-01 5.7409698962815825e-01 1.8168794387455145e-01  4.9951863769139254e-01 5.5164887720125766e-01 1.7760041202185273e-01  4.9700920864190778e-01 5.3731627817116334e-01 1.7551328485698264e-01  4.9488795671906211e-01 5.2498942284858974e-01 1.7381568709101664e-01  4.9332492808931100e-01 5.1569920311706319e-01 1.7257007827026888e-01  4.9237907079684007e-01 5.0994023176382208e-01 1.7186311697939674e-01  4.9197368900468680e-01 5.0744657633209667e-01 1.7155879826847145e-01  4.9202249586537322e-01 5.0774915072868509e-01 1.7159521380159523e-01  4.9258472181743113e-01 5.1118431636998829e-01 1.7201953020595101e-01  4.9338714301617065e-01 5.1610346708768540e-01 1.7261437264810611e-01  4.9512136606450741e-01 5.2639291613924155e-01 1.7398892147299660e-01  4.9732744290286024e-01 5.3909285201305657e-01 1.7580549837683707e-01  5.0014779644883522e-01 5.5475949810577496e-01 1.7825589761968069e-01  5.0352206864818005e-01 5.7268263881166037e-01 1.8125278818329046e-01  5.0776882109832810e-01 5.9387478038311470e-01 1.8526668665668808e-01  5.1308416346947061e-01 6.1839457514154594e-01 1.9064968163440782e-01  5.1934329970266080e-01 6.4457014149039438e-01 1.9739789997335228e-01  5.2672839120833603e-01 6.7187723670997312e-01 2.0586874557939386e-01  5.3541678193477649e-01 6.9925880660626882e-01 2.1661134550751693e-01  5.4560206487002316e-01 7.2529217073499153e-01 2.3037621205610917e-01  5.5751993369331598e-01 7.4774195639879226e-01 2.4836908574246036e-01  5.7101549190489564e-01 7.6415081390409534e-01 2.7132139381799558e-01  5.8576300606728493e-01 7.7197107655908992e-01 3.0026662354379624e-01  6.0142302514000689e-01 7.6928618112677960e-01 3.3719035513151613e-01  6.1723620423284120e-01 7.5428960674038237e-01 3.8423903742929499e-01  6.3179419371797108e-01 7.2513479077041731e-01 4.4368774664292920e-01  6.4311900849061165e-01 6.8057621483504249e-01 5.1621192499927171e-01  6.4913049933863198e-01 6.2189389425681452e-01 5.9767104912216451e-01  6.4896440138826905e-01 5.5391655485780134e-01 6.7841906499674842e-01  6.4379469039196757e-01 4.8531452153384602e-01 7.4698682885300383e-01  6.3602504118605052e-01 4.2458743832542312e-01 7.9660819791472703e-01  6.2864240146262373e-01 3.7979598457014035e-01 8.2455542273382476e-01  6.2273539283620205e-01 3.4881436442595848e-01 8.4004431119579703e-01  6.1910179728264425e-01 3.3144485691063136e-01 8.4696648447412282e-01  6.1655539992167585e-01 3.2061810105151795e-01 8.5005825110984246e-01  6.1602180364935344e-01 3.1842424781054579e-01 8.5099868435913517e-01  6.1708974714202980e-01 3.2316440096024307e-01 8.4972408699336555e-01  6.1946513409053072e-01 3.3373372075765906e-01 8.4649565179033903e-01  6.2285341053694354e-01 3.4942054774206854e-01 8.4057722279108948e-01  6.2683052162011466e-01 3.6899571533318087e-01 8.3163680390894368e-01  6.3072289057939157e-01 3.8965394591507080e-01 8.2067632836474502e-01  6.3451673119692675e-01 4.1168508043279600e-01 8.0701370288608143e-01  6.3822815113576581e-01 4.3538224642693929e-01 7.9044034449763512e-01  6.4142158159061091e-01 4.5829808419659074e-01 7.7267542817101498e-01  6.4411499862188182e-01 4.8041764452423952e-01 7.5389282250707568e-01  6.4635579113429509e-01 5.0180957386275171e-01 7.3435303966861776e-01  6.4819070273080559e-01 5.2295649485716067e-01 7.1371581116156191e-01  6.4944445674631313e-01 5.4165201565934384e-01 6.9435062854213514e-01  6.5034102868819765e-01 5.5981560966561350e-01 6.7464605871348771e-01  6.5084399557327677e-01 5.7653245419419619e-01 6.5564816501852308e-01  6.5101047378665677e-01 5.9259900849203651e-01 6.3665789558941799e-01  6.5086835956537725e-01 6.0716437120940703e-01 6.1879723321799796e-01  6.5045672451029179e-01 6.2046322435446666e-01 6.0193595779580011e-01  6.4981515631455933e-01 6.3285935641509339e-01 5.8572657421052776e-01  6.4896856622218146e-01 6.4440573953859526e-01 5.7018889260992844e-01  6.4795599933538472e-01 6.5507998051304261e-01 5.5541896520642053e-01  6.4552574742807756e-01 6.7403117243532429e-01 5.2817028365955621e-01  6.4415157501005349e-01 6.8240340862134530e-01 5.1565881522562629e-01  6.4267568925729091e-01 6.9024766277427663e-01 5.0364673925607228e-01  6.4114017637113674e-01 6.9746000214803217e-01 4.9232438371442222e-01  6.3955007328037550e-01 7.0412522365687991e-01 4.8159940247124905e-01  6.3791755740620593e-01 7.1028641861148234e-01 4.7143510362812863e-01  6.3624935867745480e-01 7.1599066959699464e-01 4.6178074748069375e-01  6.3456112092847483e-01 7.2125429829875687e-01 4.5263692176496195e-01  6.3285557906903911e-01 7.2612260962680486e-01 4.4394932853228897e-01  6.3113954174467013e-01 7.3062311704909477e-01 4.3569093856846475e-01  6.2941707933025415e-01 7.3478230532487898e-01 4.2783246431218436e-01  6.2771485251192649e-01 7.3858515208771325e-01 4.2043059133562055e-01  6.2598843092241374e-01 7.4215571568813832e-01 4.1325784902383839e-01  6.2427125908801817e-01 7.4544753007429732e-01 4.0642372232312596e-01  6.2258385581330045e-01 7.4844117697289148e-01 3.9998236432726242e-01  6.2086131878670736e-01 7.5127685871837013e-01 3.9365165342783376e-01  6.1916143950284874e-01 7.5386874487056610e-01 3.8763027496965552e-01  6.1751984361049683e-01 7.5618323731800818e-01 3.8201589670673303e-01  6.1586990542312181e-01 7.5833175927520591e-01 3.7656165244368828e-01  6.1424055482229334e-01 7.6030016672387191e-01 3.7132807276531182e-01  6.1262544316261036e-01 7.6209663446589104e-01 3.6629553453399855e-01  6.1102986022696015e-01 7.6372476385608379e-01 3.6146683143750435e-01  6.0944859065801227e-01 7.6520471540103796e-01 3.5680624486353502e-01  6.0787773100839848e-01 7.6654401145362627e-01 3.5229622365889074e-01  6.0635350615426842e-01 7.6772072830379812e-01 3.4803141993519093e-01  6.0483776370113751e-01 7.6877480464007519e-01 3.4388931679368995e-01  6.0333367722594000e-01 7.6971333987833190e-01 3.3986954529247171e-01  6.0188224005915480e-01 7.7050966298541412e-01 3.3608128415752353e-01  6.0042992525928929e-01 7.7120732859063723e-01 3.3236904527972039e-01  5.9900275153544902e-01 7.7179934544280804e-01 3.2879034904781113e-01  5.9760831535719805e-01 7.7228471731074855e-01 3.2536484777301244e-01  5.9623750978046752e-01 7.7267408877585264e-01 3.2206052269232432e-01  5.9489364591364291e-01 7.7297227327034757e-01 3.1887959869943683e-01  5.9356859897911496e-01 7.7318544578187420e-01 3.1579823549342845e-01  5.9225377161418324e-01 7.7332025387671255e-01 3.1278958341011220e-01  5.9099920966667141e-01 7.7337490891975003e-01 3.0996747752789727e-01  5.8977673563566380e-01 7.7335762826379317e-01 3.0726207741164063e-01  5.8853842583096760e-01 7.7327539269071865e-01 3.0455792214886968e-01  5.8735359290341083e-01 7.7313059366658954e-01 3.0201070164864763e-01  5.8621410802759499e-01 7.7292914360135800e-01 2.9959778785246782e-01  5.8508964652451045e-01 7.7267497388099260e-01 2.9724561286552609e-01  5.8400027231516560e-01 7.7237455609546213e-01 2.9499574032996273e-01  5.8292574790471419e-01 7.7202544292112252e-01 2.9280439906529820e-01  5.8191076155619392e-01 7.7164757967331221e-01 2.9075831600566882e-01  5.8090631804904813e-01 7.7122702464626369e-01 2.8875742401876026e-01  5.7994416257687187e-01 7.7078074904544347e-01 2.8686230704390792e-01  5.7900535796986952e-01 7.7030500003850833e-01 2.8503010253008881e-01  5.7808574076315411e-01 7.6980096465368864e-01 2.8325234052720699e-01  5.7722469517491271e-01 7.6929103730382353e-01 2.8160859247445635e-01  5.7640185344107431e-01 7.6877094295404336e-01 2.8005110227869889e-01  5.7558499503901006e-01 7.6822588499267219e-01 2.7851605141235919e-01  5.7481755268584112e-01 7.6768399380304120e-01 2.7708728417151457e-01  5.7409362099579220e-01 7.6714669811947300e-01 2.7575175817833641e-01  5.7339369279929508e-01 7.6660415036026286e-01 2.7446808954646046e-01  5.7272246296733609e-01 7.6606363253695042e-01 2.7324547278221456e-01  5.7209804038551393e-01 7.6554002576626023e-01 2.7211620588770585e-01  5.8377547346042169e-01 7.7229110738833051e-01 2.9455273117288167e-01  6.3443979896568270e-01 4.1168742618667881e-01 8.0712873818528064e-01  5.6955591974734143e-01 7.6322365071546849e-01 2.6759006577555222e-01  6.4759088387316421e-01 6.5812145693347990e-01 5.5111648146954528e-01  5.7214104747661487e-01 7.6556422602177421e-01 2.7220836876719318e-01  5.6451565657381242e-01 1.7137564126367277e-01 8.0526992279588894e-01  5.7843397414813424e-01 7.7001892780613634e-01 2.8390494830380669e-01  5.9858031908462406e-01 7.7199402723813859e-01 3.2771349639227110e-01  5.0732264252278580e-01 5.9161169387512069e-01 1.8505142873140706e-01  6.3897257819455666e-01 4.4224326855508017e-01 7.8526753251328052e-01  5.9454371693795804e-01 7.7302072351775897e-01 3.1808003172005322e-01  6.1772253710765745e-01 3.3601103460645665e-01 8.4458386368795590e-01  5.9218400882341249e-01 2.3310928250062674e-01 8.5286629826869320e-01  6.0287579636373445e-01 7.6995398612023025e-01 3.3869432281149292e-01  6.4987429092928506e-01 6.2961367080308162e-01 5.8993918469699158e-01  5.6760711101128747e-01 7.6122246012621075e-01 2.6420774726153512e-01  6.1301507570507019e-01 7.5663239040760932e-01 3.7447304631034783e-01  5.2486211445000253e-01 6.6506995666465674e-01 2.0392682517753163e-01  5.6686818058096411e-01 7.6041487232675153e-01 2.6294488773059682e-01  6.1364622825573290e-01 7.6095110015762057e-01 3.6949706922374309e-01  6.3813702243696335e-01 7.0916515592791984e-01 4.7320602215273827e-01  6.2546460289822492e-01 7.4314858778092374e-01 4.1119990785210142e-01  5.6709695796652770e-01 7.6066285725764471e-01 2.6333781880458684e-01  4.9780597223638001e-01 5.4172177429969093e-01 1.7633664942501076e-01  6.2239986673039904e-01 7.4868811500013988e-01 3.9938986017178568e-01  6.3413472134963178e-01 7.2240926711066633e-01 4.5056145388374075e-01  5.6820123790422417e-01 7.6183944754300215e-01 2.6524385030087100e-01  5.7799904734829477e-01 7.6973700324416794e-01 2.8310486493006121e-01  6.4970320147886274e-01 5.4707926373450644e-01 6.8855646653106917e-01  5.9951969190707899e-01 7.6637321949207871e-01 3.3737723258604635e-01  5.8538637372086177e-01 7.7278254544909086e-01 2.9783096347717319e-01  5.7261697655035038e-01 7.6598961222393880e-01 2.7304309099643259e-01  4.9313282940982156e-01 5.1439190452151395e-01 1.7253739213056193e-01  6.1200362976303280e-01 7.6273497710882399e-01 3.6441920708624376e-01  6.4065030142252144e-01 6.9946829425955570e-01 4.8909785687858937e-01  5.6958173142607249e-01 7.6322995833406704e-01 2.6765229674289187e-01  5.4853524909773677e-01 1.3157652035930636e-01 7.4854848993334699e-01  6.1375396341982635e-01 3.1017568249882238e-01 8.5319154146258325e-01  5.7478143190137154e-01 7.6764366163397824e-01 2.7703708461079862e-01  5.8831745654420264e-01 7.7324017773137799e-01 3.0409929991294365e-01  6.5069906164465963e-01 6.1210582016280146e-01 6.1257124452708001e-01  5.3761295309201995e-01 7.0491045837996169e-01 2.2007398130549471e-01  5.9119040539501966e-01 7.7339873966343875e-01 3.1036784775839493e-01  5.6724545322049746e-01 7.6082495601503553e-01 2.6359409849888416e-01  5.8172616652115106e-01 7.7159940187126674e-01 2.9036801908367343e-01  4.9680823502299359e-01 5.3599059327358212e-01 1.7550059470002494e-01  6.4273746127326625e-01 5.7166241439342691e-01 6.5527205542533595e-01  6.0500394590985751e-01 7.6866775673928300e-01 3.4434353943749835e-01  6.4906093355017236e-01 5.3820671883756510e-01 6.9795441708124173e-01  5.8075486915107166e-01 7.7114284637140629e-01 2.8847663603932816e-01  5.7108433318277507e-01 7.6465934517625334e-01 2.7029554487313573e-01  6.0741792787585358e-01 7.6688293111778838e-01 3.5103794926972681e-01  5.6751771662050643e-01 7.5999047457087920e-01 2.6592057459304008e-01  6.1855109741603054e-01 7.5471668186101870e-01 3.8556877592722821e-01  6.4463430272817157e-01 4.8568195374988588e-01 7.4922131784606960e-01  5.7491397314541959e-01 7.6777356022496557e-01 2.7725068068917452e-01  5.9863576924