<?xml version="1.0"?>
<VTKFile type="UnstructuredGrid"  version="0.1"  >
<UnstructuredGrid>
<Piece  NumberOfPoints="4940" NumberOfCells="9650">
<Points>
<DataArray  type="Float64"  NumberOfComponents="3"  format="ascii">500 250 0  0 250 0  250 500 0  250 0 0  256.8885856082646 499.9050767557906 0  263.7719401218049 499.6203791065173 0  270.6448364229772 499.1461232471188 0  277.5020553257866 498.4826693209355 0  284.3383895508592 497.6305211460281 0  291.1486476865662 496.5903258312597 0  297.9276581259182 495.3628732847843 0  304.6702729675493 493.9490956196674 0  311.3713719748657 492.3500664368026 0  318.0258664141369 490.5670000199653 0  324.6287029687753 488.6012504015818 0  331.1748675330201 486.4543103455647 0  337.6593890460416 484.1278102064655 0  344.0773432429536 481.6235166997244 0  350.4238564271474 478.9433315480048 0  356.694109139292 476.0892900492477 0  362.88333985546 473.0635595140469 0  368.9868485575419 469.8684376402048 0  375.0000003153078 466.5063507640667 0  380.9182288257928 462.9798520074548 0  386.7370398729688 459.2916193419558 0  392.4520147244077 455.444453565817 0  398.0588135356345 451.4412761437442 0  403.5531785622926 447.285127045646 0  408.9309374414144 442.9791624087773 0  414.1880064015299 438.5266521049243 0  419.3203932989752 433.9309773069245 0  424.324200661095 429.1956279150535 0  429.1956286596235 424.3241998957182 0  433.9309780058756 419.3203925397119 0  438.5266527445345 414.1880056671062 0  442.9791630130591 408.9309367076756 0  447.2851276060475 403.5531778422888 0  451.4412766621026 398.0588128303826 0  455.4444540361634 392.4520140460735 0  459.2916197786263 386.7370392045948 0  462.9798524073514 380.9182281752347 0  466.5063511234856 374.9999996927758 0  469.8684379657123 368.9868479560565 0  473.0635598144817 362.8833392617846 0  476.0892903190255 356.6941085676214 0  478.9433317963513 350.4238558609745 0  481.6235169154735 344.0773427117675 0  484.12781039012 337.6593885555221 0  486.4543105028062 331.1748670749914 0  488.601250531677 324.6287025528375 0  490.5670001317469 318.0258660188321 0  492.3500665291326 311.3713716102628 0  493.949095695951 304.6702726271575 0  495.3628733416623 297.9276578347343 0  496.5903258712341 291.1486474470129 0  497.6305211749058 284.3383893426084 0  498.4826693388848 277.502055163614 0  499.1461232580606 270.6448362909296 0  499.6203791109319 263.7719400417897 0  499.9050767571306 256.8885855596534 0  499.9050767559877 243.1114143988867 0  499.6203791069493 236.2280598860241 0  499.1461232485393 229.3551635941651 0  498.4826693235677 222.4979446979962 0  497.6305211491849 215.6616104719064 0  496.5903258357701 208.8513523404629 0  495.3628732906988 202.0723419043604 0  493.9490956264813 195.3297270628552 0  492.3500664487791 188.6286280724281 0  490.5670000344809 181.9741336371959 0  488.6012504175981 175.3712970824318 0  486.4543103623226 168.8251325157939 0  484.1278102222298 162.3406109960628 0  481.6235167152198 155.9226567951971 0  478.9433315621651 149.5761436051346 0  476.0892900516498 143.3058908657982 0  473.063559513628 137.1166601437124 0  469.8684376406648 131.0131514433083 0  466.5063507675389 124.9999996907064 0  462.9798520124137 119.0817711822745 0  459.2916193464549 113.2629601339176 0  455.4444535642773 107.5479852733717 0  451.4412761528674 101.9411864767781 0  447.2851270583545 96.44682145403524 0  442.9791624165781 91.06906256805769 0  438.5266521117469 85.81199360630404 0  433.9309773156125 80.67960671046254 0  429.1956279150353 75.67579933888632 0  424.3241998888952 70.80437133373906 0  419.3203925223282 66.06902197812161 0  414.1880056411937 61.47334723289828 0  408.9309366751728 57.0208369601728 0  403.5531778009394 52.71487236176898 0  398.058812796452 48.55872331295853 0  392.4520140187753 44.55554594490843 0  386.7370391799677 40.70838020528396 0  380.9182281475119 37.02014757560744 0  374.9999996718656 33.49364886444181 0  368.9868479340393 30.13156202237255 0  362.8833392380029 26.93644017348339 0  356.6941085456942 23.91070967062674 0  350.4238558420009 21.0566681953261 0  344.0773426899492 18.37648307566465 0  337.6593885328982 15.87218960140942 0  331.1748670549786 13.54568949032341 0  324.6287025315056 11.39874946165088 0  318.0258660010876 9.432999863235466 0  311.3713716017894 7.649933468721599 0  304.6702726190621 6.050904302234756 0  297.9276578269805 4.637126656823085 0  291.148647441857 3.409674127905504 0  284.3383893425031 2.369478825079682 0  277.502055159398 1.517330660648639 0  270.6448362875833 0.853876741662134 0  263.7719400401456 0.3796208889774277 0  256.8885855592052 0.09492324285704967 0  243.1114143979462 0.09492324403817065 0  236.2280598850882 0.3796208931023841 0  229.3551635938215 0.8538767514891958 0  222.4979446968584 1.517330676558146 0  215.6616104703111 2.369478851036291 0  208.8513523382973 3.409674164591252 0  202.0723419066374 4.637126708856528 0  195.3297270659513 6.050904372824903 0  188.628628074828 7.649933550613184 0  181.9741336377093 9.432999965373938 0  175.3712970793675 11.39874958336037 0  168.8251325057572 13.54568964112298 0  162.340610986655 15.87218978129263 0  155.9226567874317 18.37648328793418 0  149.576143602509 21.05666843898663 0  143.3058908718157 23.91070994551046 0  137.1166601505524 26.93644048291054 0  131.0131514451933 30.13156235831508 0  124.9999996848412 33.49364923584736 0  119.0817711715717 37.0201479941652 0  113.2629601211624 40.70838066187849 0  107.5479852622251 44.55554644345162 0  101.9411864693332 48.55872385260452 0  96.44682143286516 52.71487295812284 0  91.06906254351222 57.02083760363669 0  85.81199358272519 61.4733479087879 0  80.67960667988106 66.06902271253972 0  75.67579930062769 70.80437212218331 0  70.80437129287643 75.67580015310926 0  66.06902193673014 80.67960752263491 0  61.47334718684866 85.81199441168215 0  57.02083692524275 91.0690633672404 0  52.71487232786438 96.44682224262129 0  48.55872328070024 101.941187247437 0  44.55554591578033 107.5479860232332 0  40.7083801742321 113.2629608675606 0  37.02014754791168 119.0817718975441 0  33.49364883372994 125.000000381329 0  30.13156199866361 131.0131521097709 0  26.9364401549829 137.1166607985551 0  23.91070965524918 143.3058914868915 0  21.05666818346614 149.576144185037 0  18.37648306853811 155.9226573275967 0  15.8721895918909 162.3406114925245 0  13.54568948170046 168.8251329701392 0  11.39874945301878 175.3712974960928 0  9.432999857087736 181.9741340206533 0  7.649933466342702 188.6286284076045 0  6.050904301250966 195.3297273853278 0  4.637126656808988 202.0723421730917 0  3.409674127767772 208.8513525589684 0  2.369478824521138 215.6616106615248 0  1.517330660909465 222.4979448382452 0  0.8538767414496533 229.355163714981 0  0.3796208887135322 236.2280599646376 0  0.09492324266324204 243.1114144478261 0  0.0949232442452228 256.8885856095658 0  0.3796208935834784 263.7719401236316 0  0.8538767530323526 270.6448364248016 0  1.517330679476544 277.5020553295092 0  2.369478854618649 284.3383895555228 0  3.409674170191892 291.1486476952655 0  4.6371267162381 297.9276581311522 0  6.050904381420935 304.6702729724059 0  7.649933562385399 311.3713719716595 0  9.43299997979841 318.0258664133013 0  11.3987495994252 324.6287029719946 0  13.54568965885832 331.174867545904 0  15.87218979367188 337.6593890464085 0  18.37648329843151 344.0773432384132 0  21.05666844777872 350.423856417535 0  23.91070995156048 356.6941091410045 0  26.93644048988043 362.8833398632205 0  30.13156235982007 368.9868485575877 0  33.49364924138357 375.0000003247478 0  37.0201480006036 380.9182288389023 0  40.70838066758398 386.7370398875706 0  44.55554644477201 392.4520147396792 0  48.55872386086904 398.0588135419111 0  52.71487295981296 403.5531785693063 0  57.02083760525949 408.9309374584583 0  61.47334790862246 414.1880064170849 0  66.06902271205095 419.320393319588 0  70.80437211216579 424.3242006890749 0  75.67580013809859 429.195628692521 0  80.6796075127923 433.930978054209 0  85.81199439754931 438.5266528008431 0  91.06906334717917 442.9791630582355 0  96.44682221438322 447.2851276501571 0  101.9411872243843 451.441276702356 0  107.5479859945825 455.4444540643537 0  113.2629608446994 459.2916198108319 0  119.0817718768376 462.9798524393601 0  125.0000003647644 466.5063511567065 0  131.0131521012763 469.8684379967393 0  137.1166607840049 473.0635598376539 0  143.3058914748804 476.0892903390826 0  149.5761441732679 478.9433318113714 0  155.9226573130112 481.6235169255377 0  162.3406114779862 484.1278104026658 0  168.8251329570439 486.4543105138039 0  175.3712974805475 488.601250542119 0  181.9741340135204 490.5670001408953 0  188.6286284005059 492.3500665318597 0  195.3297273788229 493.9490956972913 0  202.0723421640089 495.3628733414168 0  208.8513525529672 496.5903258712308 0  215.6616106544547 497.6305211744985 0  222.4979448327038 498.4826693384772 0  229.3551637102845 499.1461232581612 0  236.2280599621369 499.6203791111485 0  243.1114144470173 499.9050767573145 0  155.2373389820306 474.8197567317462 0  25.36256300907667 153.9152755065208 0  432.3709625126712 412.6214396304305 0  6.013151705810699 246.637913163471 0  246.6379131630491 493.986848294322 0  338.6995838441862 22.68244767887072 0  477.3175523131281 338.6995838660569 0  493.9868482700757 246.6379131399102 0  246.6201155078769 6.218451882810491 0  417.6179310263282 72.7156044707053 0  102.2232990934413 445.0100869616822 0  63.66330858966404 92.20354579482142 0  391.3105220491464 50.73522820883105 0  72.79295043967942 418.0702734974704 0  448.290574428537 108.25674339002 0  402.4604651193511 440.7462829841712 0  97.55317348421397 59.11376320116034 0  136.7376477664901 33.58246472647134 0  363.3288394375288 465.6947312928271 0  44.0678766556007 381.0860953771871 0  469.6905266180034 142.3890690100806 0  22.68244791668644 338.6995843487432 0  338.699584349159 477.317552078365 0  173.389488083762 18.6681884918202 0  483.4809734778481 179.7121987795732 0  13.50237455842738 306.4709525540879 0  305.9825168523021 487.24416992
[...]
<PointData  Vectors="f_12"> 
<DataArray  type="Float64"  Name="f_12"  NumberOfComponents="3" format="ascii">6.1806910225081124e-01 7.5546314447797824e-01 3.8381979646668407e-01  6.5094183885957890e-01 6.0333110241286336e-01 6.2358534598650939e-01  5.9568693935175943e-01 7.7281586516459699e-01 3.2073508257435185e-01  5.3120409676463520e-01 6.8667931582095443e-01 2.1102296671503901e-01  5.9516626503642556e-01 7.7292956579889460e-01 3.1950353864887615e-01  5.9470147822932140e-01 7.7301828254324223e-01 3.1841359242997269e-01  5.9423818981706178e-01 7.7309898965537294e-01 3.1733121313914364e-01  5.9382145381686302e-01 7.7316265087303593e-01 3.1636434867997776e-01  5.9343094610686031e-01 7.7321491211195559e-01 3.1546327359039467e-01  5.9307064060677417e-01 7.7325752307880480e-01 3.1463509190974037e-01  5.9273927350420286e-01 7.7329171296739352e-01 3.1387673473165612e-01  5.9243170961674263e-01 7.7331930152013773e-01 3.1317530342141414e-01  5.9215280203532561e-01 7.7334078473440815e-01 3.1254136013111627e-01  5.9190544232760423e-01 7.7335682839583353e-01 3.1198119604360985e-01  5.9172458996842014e-01 7.7336490028970717e-01 3.1157482941353359e-01  5.9149872208113941e-01 7.7337803884858525e-01 3.1106282941731062e-01  5.9139918674516068e-01 7.7337931059417997e-01 3.1084181985074510e-01  5.9126801071667612e-01 7.7338471555494148e-01 3.1054621298410173e-01  5.9118014633793659e-01 7.7338725212801362e-01 3.1034931131064569e-01  5.9111602606139735e-01 7.7338963643468484e-01 3.1020479740463475e-01  5.9106919269185954e-01 7.7339290950759521e-01 3.1009681924880966e-01  5.9108442013776352e-01 7.7339215219149204e-01 3.1013137117664408e-01  5.9113340742478859e-01 7.7339019450770086e-01 3.1024241448382189e-01  5.9117082859747672e-01 7.7339168510940370e-01 3.1032329558680971e-01  5.9124259680904201e-01 7.7339215159349428e-01 3.1048132144274382e-01  5.9136419044682331e-01 7.7338876866157191e-01 3.1075367813688320e-01  5.9154446833451302e-01 7.7338074676306923e-01 3.1116019384639498e-01  5.9170718306715930e-01 7.7337559643027765e-01 3.1152396746408106e-01  5.9189382098273435e-01 7.7336840003991514e-01 3.1194179576723857e-01  5.9215475484532676e-01 7.7335192630991856e-01 3.1253223253528400e-01  5.9240988221428970e-01 7.7333519960537300e-01 3.1310876257669445e-01  5.9270393138593924e-01 7.7331094285628543e-01 3.1377686773640834e-01  5.9303152352187716e-01 7.7327927931809537e-01 3.1452444262728602e-01  5.9336577243732680e-01 7.7324389899984447e-01 3.1528804237530034e-01  5.9377127611873104e-01 7.7319046521395540e-01 3.1622324312880074e-01  5.9419571766366897e-01 7.7312781891457305e-01 3.1720614647195378e-01  5.9461234648129624e-01 7.7306242989247931e-01 3.1817101776477802e-01  5.9509498953363116e-01 7.7297312917923811e-01 3.1929972425831499e-01  5.9564728011193258e-01 7.7285386125064126e-01 3.2060564369931577e-01  5.9620168377707039e-01 7.7272325488469418e-01 3.2192236295084814e-01  5.9674997871573199e-01 7.7258415389144852e-01 3.2322925101757805e-01  5.9736417528023023e-01 7.7240796081574548e-01 3.2470946400510781e-01  5.9804764911691577e-01 7.7219013602845199e-01 3.2637338843266855e-01  5.9874189245549470e-01 7.7194878399078992e-01 3.2807680036015746e-01  5.9948824818418756e-01 7.7166154706759704e-01 3.2993033195688903e-01  6.0027564181758553e-01 7.7133198197516839e-01 3.3190471031556834e-01  6.0109634817983992e-01 7.7095846982200522e-01 3.3398488098732487e-01  6.0194398868867471e-01 7.7054076303529484e-01 3.3615853262549783e-01  6.0288800254299169e-01 7.7002852745165895e-01 3.3861776469748284e-01  6.0386080341174608e-01 7.6945991708169326e-01 3.4118465427059225e-01  6.0486916178761596e-01 7.6881919251864750e-01 3.4388734631596896e-01  6.0593778938215836e-01 7.6808870385646344e-01 3.4679536141511003e-01  6.0703700472125410e-01 7.6727745026429506e-01 3.4983649776663933e-01  6.0822792706396067e-01 7.6632541075384297e-01 3.5319833786478638e-01  6.0946129437658314e-01 7.6526410520468102e-01 3.5674653203396967e-01  6.1072742977874805e-01 7.6409410326150307e-01 3.6046152054386549e-01  6.1207272429157833e-01 7.6275078668258056e-01 3.6450495556248619e-01  6.1346724977396272e-01 7.6125264759377587e-01 3.6879834586947113e-01  6.1490655074827139e-01 7.5960521062979014e-01 3.7332108412256132e-01  6.1633990490223889e-01 7.5785380868275132e-01 3.7794501332367125e-01  6.1965749047910823e-01 7.5320459715606936e-01 3.8926236064598879e-01  6.2131877842815597e-01 7.5061942219079758e-01 3.9520232728341803e-01  6.2299738815757322e-01 7.4779552934255566e-01 4.0144133616853228e-01  6.2479489848980074e-01 7.4453575671593086e-01 4.0838170324837691e-01  6.2661787411660952e-01 7.4094859441152294e-01 4.1574398532611906e-01  6.2848320179470452e-01 7.3697513322666230e-01 4.2362630627085190e-01  6.3036846859768814e-01 7.3258251326875057e-01 4.3203998355001194e-01  6.3228670956565003e-01 7.2769869740261905e-01 4.4109646541713804e-01  6.3420666502541678e-01 7.2233756615214628e-01 4.5073196901073487e-01  6.3611088828436246e-01 7.1647447957666555e-01 4.6095522510588877e-01  6.3803727026266843e-01 7.0985322879059010e-01 4.7214997671494996e-01  6.3990575929035332e-01 7.0267995766619495e-01 4.8393866248485712e-01  6.4172023146975976e-01 6.9480304186066677e-01 4.9651361737114325e-01  6.4348586435704125e-01 6.8599039278591223e-01 5.1018473622395455e-01  6.4515445301918761e-01 6.7627365590496602e-01 5.2482487931442534e-01  6.4668476289986898e-01 6.6561073943300153e-01 5.4042497591545913e-01  6.4805114442620959e-01 6.5390122428552799e-01 5.5704717175814533e-01  6.4920731644043217e-01 6.4101565830197949e-01 5.7477012226874680e-01  6.5011177638242934e-01 6.2675723562290631e-01 5.9373696157127664e-01  6.5071469868071363e-01 6.1106196852505668e-01 6.1387949574562384e-01  6.5096023815838577e-01 5.9419057506737283e-01 6.3472676167889885e-01  6.5075556303660687e-01 5.7505434595569394e-01 6.5735100366863175e-01  6.5002949444883729e-01 5.5416474481697031e-01 6.8085155384986507e-01  6.4868979722101849e-01 5.3105325173377371e-01 7.0544291398873304e-01  6.4662435399900620e-01 5.0567391016010976e-01 7.3068119143907051e-01  6.4371434633282743e-01 4.7786714884176995e-01 7.5616453366542979e-01  6.3982344351789966e-01 4.4747010425801476e-01 7.8132003792567761e-01  6.3481428570739584e-01 4.1446117530175325e-01 8.0527713450460336e-01  6.2854200046413411e-01 3.7891195362051761e-01 8.2677414356966905e-01  6.2087297456832335e-01 3.4120097885468054e-01 8.4411862452093900e-01  6.1174128029219332e-01 3.0203064485330167e-01 8.5524001012179285e-01  6.0119833424728220e-01 2.6267311661239018e-01 8.5769579111141248e-01  5.8950166574929708e-01 2.2485407584224446e-01 8.4979333594891204e-01  5.7681775077623065e-01 1.8997290321144866e-01 8.2957595731240052e-01  5.6378581306194520e-01 1.5984797763457922e-01 7.9789833926873699e-01  5.5180300850743857e-01 1.3669257744566590e-01 7.6011368026829340e-01  5.4148228824787814e-01 1.2009750326733315e-01 7.2096767707675691e-01  5.3306600192248776e-01 1.0873577552841356e-01 6.8502690366055619e-01  5.2787005489427186e-01 1.0216499853951534e-01 6.6203609350580861e-01  5.2579574607504753e-01 9.9095337622305768e-02 6.5355925874707943e-01  5.2640575187632033e-01 9.9906944967926792e-02 6.5713492325630540e-01  5.3545278914609673e-01 1.1112548362365966e-01 6.9921929276152006e-01  5.5339577369591975e-01 1.4009735236781473e-01 7.7004415245230318e-01  5.8277472741337488e-01 2.0791166776561787e-01 8.4673726717909215e-01  6.1672979800858896e-01 3.3343746863483448e-01 8.4742233154486590e-01  6.4074939942696996e-01 4.8321555741127603e-01 7.4913973307918325e-01  6.4720164466772079e-01 6.0720808666890391e-01 6.1514953917230075e-01  6.3957173989026495e-01 6.9039989953011760e-01 4.9977829942598412e-01  6.2485295585206257e-01 7.3894755484898056e-01 4.1612554215311570e-01  6.0820663980180234e-01 7.6376124059263983e-01 3.5681595399728239e-01  5.9214917644369591e-01 7.7250509255949373e-01 3.1405394895118632e-01  5.7775186329018280e-01 7.6932453231505216e-01 2.8341609326517192e-01  5.6524963437239084e-01 7.5854253454606824e-01 2.6065898989354719e-01  5.5444331649735135e-01 7.4288173258586709e-01 2.4323565949814629e-01  5.4530370819438689e-01 7.2459192032251651e-01 2.2975176539726863e-01  5.3757908190073245e-01 7.0538706015979702e-01 2.1922612523256196e-01  5.2626401596324068e-01 6.7021438447030679e-01 2.0518774643439011e-01  5.2124666502923067e-01 6.5242305236411058e-01 1.9916346442390101e-01  5.1824535407334760e-01 6.4031130003248693e-01 1.9588415439676518e-01  5.1569449775828569e-01 6.2975615663337514e-01 1.9316919495612292e-01  5.1380151185431122e-01 6.2166011948185551e-01 1.9115798093493555e-01  5.1264682690448227e-01 6.1656160359454626e-01 1.8997983814168970e-01  5.1215015745571613e-01 6.1433557159385155e-01 1.8947254558982579e-01  5.1221009189037636e-01 6.1460716846268482e-01 1.8953340872734500e-01  5.1289708385222954e-01 6.1765764941786716e-01 1.9023875828448095e-01  5.1387925130609391e-01 6.2203372772764887e-01 1.9123349911262935e-01  5.1597783652190077e-01 6.3098341428420035e-01 1.9345527686558128e-01  5.1862248052102589e-01 6.4179306674030268e-01 1.9632753359960381e-01  5.2196662390948856e-01 6.5479351255737139e-01 2.0009265340632434e-01  5.2591785377545475e-01 6.6918390584190990e-01 2.0461974126865848e-01  5.3080763746407711e-01 6.8546155649503127e-01 2.1050092966482803e-01  5.3680819668107882e-01 7.0326731689576483e-01 2.1814696395869257e-01  5.4371979810166460e-01 7.2098788179618345e-01 2.2747355765263938e-01  5.5167527865167743e-01 7.3789749679178729e-01 2.3889305003571693e-01  5.6077298329920489e-01 7.5290883445173762e-01 2.5301579146514985e-01  5.7110071710230248e-01 7.6474654004121656e-01 2.7067269796810056e-01  5.8272803978843435e-01 7.7161286324467337e-01 2.9318693407773744e-01  5.9535513401778661e-01 7.7209714128865536e-01 3.2128712021014960e-01  6.0849567777806324e-01 7.6470459489813336e-01 3.5601863414059876e-01  6.2164269578578157e-01 7.4789950374941871e-01 3.9939911685787322e-01  6.3389469251529873e-01 7.1986217742613778e-01 4.5349384865956938e-01  6.4375296041338903e-01 6.7827371119906543e-01 5.2020483396651895e-01  6.4930560321831321e-01 6.2151227810179843e-01 5.9855912149444401e-01  6.4889765373525909e-01 5.5125259482680922e-01 6.8170339165996729e-01  6.4230186472375284e-01 4.7331524727581192e-01 7.5739190747436524e-01  6.3140041502192712e-01 3.9787354653650464e-01 8.1352320548580048e-01  6.1911005959124310e-01 3.3442854631599933e-01 8.4535091397132356e-01  6.0871781773383871e-01 2.9011769217352090e-01 8.5584375000307367e-01  6.0094216184828209e-01 2.6081011883728722e-01 8.5729438406919245e-01  5.9637069510015861e-01 2.4511213574210464e-01 8.5548923755725315e-01  5.9334207853154686e-01 2.3579810807171808e-01 8.5271453726360613e-01  5.9277240279252985e-01 2.3410246565336063e-01 8.5242143281600913e-01  5.9414911324599951e-01 2.3854974072817151e-01 8.5359166053998214e-01  5.9713654537280991e-01 2.4826341238436278e-01 8.5574931544238686e-01  6.0143037077979855e-01 2.6284143255088160e-01 8.5746134715507560e-01  6.0657788058779505e-01 2.8140496311576718e-01 8.5744305657402509e-01  6.1176936676151117e-01 3.0143807116250748e-01 8.5522478019950521e-01  6.1701282442067329e-01 3.2332425504817669e-01 8.4999483864150893e-01  6.2234722332932813e-01 3.4736954837862971e-01 8.4157851159486141e-01  6.2718135273258946e-01 3.7110936646513837e-01 8.3079949437868006e-01  6.3152310424417746e-01 3.9445949853630008e-01 8.1788966593852341e-01  6.3541658066573492e-01 4.1740376405547747e-01 8.0327382182843776e-01  6.3894452826869352e-01 4.4042307917099421e-01 7.8676540007622076e-01  6.4175283838571906e-01 4.6105866072076745e-01 7.7042003345237742e-01  6.4420862484949515e-01 4.8133090744398233e-01 7.5314366740356242e-01  6.4619263061692400e-01 5.0018982150105074e-01 7.3589971853869340e-01  6.4782947716546058e-01 5.1849628709053319e-01 7.1818667789600643e-01  6.4906222064893659e-01 5.3524577695949649e-01 7.0113269681712354e-01  6.4994687253200345e-01 5.5067761625269251e-01 6.8471155165859798e-01  6.5054951701807295e-01 5.6518065497261616e-01 6.6865941810423002e-01  6.5089698617700020e-01 5.7880275246256363e-01 6.5304734632824413e-01  6.5101909808736536e-01 5.9149687102379223e-01 6.3801312558341527e-01  6.5068998650074350e-01 6.1431237226622937e-01 6.0982847433623821e-01  6.5028460882158123e-01 6.2452496668645652e-01 5.9670193764088952e-01  6.4974183167536270e-01 6.3418012511352462e-01 5.8399843327035206e-01  6.4908769746221551e-01 6.4314102561451825e-01 5.7193546427183273e-01  6.4833492759034261e-01 6.5150563905780767e-01 5.6043270499794118e-01  6.4749799946348574e-01 6.5931974240544289e-01 5.4946504538478347e-01  6.4658713460084849e-01 6.6663646424404388e-01 5.3898893460072628e-01  6.4561735944024956e-01 6.7346908674760231e-01 5.2901559740413140e-01  6.4459541942312870e-01 6.7987037243070336e-01 5.1949436888708134e-01  6.4352980798947845e-01 6.8587013462703716e-01 5.1040308909610344e-01  6.4242669396616037e-01 6.9149895605981104e-01 5.0171542704701921e-01  6.4130763320157280e-01 6.9672642702717813e-01 4.9350109748838106e-01  6.4014594759110999e-01 7.0171924983316847e-01 4.8551190398931932e-01  6.3896639867669824e-01 7.0640809590532372e-01 4.7787338217254050e-01  6.3778495332646745e-01 7.1076039559525306e-01 4.7064968570171084e-01  6.3655866586440135e-01 7.1497308821229288e-01 4.6352815910616180e-01  6.3532960312486186e-01 7.1891704266555001e-01 4.5673394660050654e-01  6.3412538025053411e-01 7.2253336369285037e-01 4.5038052646030863e-01  6.3289919013046891e-01 7.2598875057989765e-01 4.4419060596179327e-01  6.3167435317415976e-01 7.2924902160807581e-01 4.3823674401426954e-01  6.3044650964798987e-01 7.3232861337133326e-01 4.3249660223753128e-01  6.2922058110238033e-01 7.3522839486915625e-01 4.2697521371294395e-01  6.2799393328465658e-01 7.3797466978187276e-01 4.2163367399944696e-01  6.2676402819300459e-01 7.4057925812899728e-01 4.1645261945803136e-01  6.2556008156209753e-01 7.4299137545628857e-01 4.1154193378851167e-01  6.2435296591428913e-01 7.4528354092975269e-01 4.0676233711260085e-01  6.2314610494668743e-01 7.4746029370564626e-01 4.0211425183021293e-01  6.2197235707244469e-01 7.4946184031274898e-01 3.9772431370010197e-01  6.2078976447288958e-01 7.5137653149473871e-01 3.9341383178481387e-01  6.1961999606444906e-01 7.5317670069288223e-01 3.8925066010480336e-01  6.1846955540500126e-01 7.5485396995754295e-01 3.8525761790337193e-01  6.1733160435673085e-01 7.5642721787713563e-01 3.8139867708398861e-01  6.1620941867273782e-01 7.5789828119010694e-01 3.7767696470943879e-01  6.1509664172077139e-01 7.5928036424039835e-01 3.7406512952597371e-01  6.1398654341051395e-01 7.6058807280917806e-01 3.7053256098382631e-01  6.1292161483654117e-01 7.6177380187830035e-01 3.6721293412719225e-01  6.1187858543121054e-01 7.6287065831038903e-01 3.6402503705402095e-01  6.1081726154260285e-01 7.6392969915279696e-01 3.6083387162689140e-01  6.0979682277920677e-01 7.6488858557333783e-01 3.5782260609364064e-01  6.0881083885238907e-01 7.6575979065674948e-01 3.5496527452034204e-01  6.0783384805524410e-01 7.6657554520435112e-01 3.5217585603957724e-01  6.0688343759033858e-01 7.6732251939764473e-01 3.4950373278225771e-01  6.0594223120521828e-01 7.6801708834961135e-01 3.4689716220105132e-01  6.0504973062693246e-01 7.6863517677582260e-01 3.4445995908064875e-01  6.0416324209426386e-01 7.6920959900250430e-01 3.4207304330768390e-01  6.0331103260506758e-01 7.6972532252938619e-01 3.3980922446105072e-01  6.0247675183130966e-01 7.7019764195530027e-01 3.3761792267621282e-01  6.0165692566074225e-01 7.7063068045282535e-01 3.3548894011635683e-01  6.0088664747587928e-01 7.7100487601350964e-01 3.3351726682508226e-01  6.0014833643575227e-01 7.7133719705066162e-01 3.3164711436521993e-01  5.9941350702155805e-01 7.7164515291327074e-01 3.2980197022126762e-01  5.9872111286774543e-01 7.7191087914033163e-01 3.2808240584357368e-01  5.9806620108858444e-01 7.7214057075320741e-01 3.2647304363687918e-01  5.9743152991104964e-01 7.7234540103481419e-01 3.2492490344039110e-01  5.9682154782328822e-01 7.7252594343121539e-01 3.2344884401715568e-01  5.9625273693338288e-01 7.7267773974683429e-01 3.2208416160065478e-01  6.0668515561580272e-01 7.6745541027409636e-01 3.4897450515011674e-01  6.1697016182549513e-01 3.2336887313030444e-01 8.5014830512704453e-01  5.9392623957340196e-01 7.7315142260736558e-01 3.1660390915839198e-01  6.5098944422181737e-01 5.9514966506094880e-01 6.3359035207527292e-01  5.9629043698228845e-01 7.7265383823864520e-01 3.2219310098902393e-01  5.3860437698626984e-01 1.2455932491904100e-01 7.1372026933069832e-01  6.0197264634719116e-01 7.7049029959959836e-01 3.3627899492654173e-01  6.1928073364970393e-01 7.5371922635399713e-01 3.8801337175442085e-01  5.3028648224149666e-01 6.8371620701221292e-01 2.1010791890975064e-01  6.2365543964701953e-01 3.5454792173940042e-01 8.3857914897819741e-01  6.1591448688871475e-01 7.5825325415835321e-01 3.7673795266122900e-01  5.9590499428910004e-01 2.4998900924357251e-01 8.5544351822255038e-01  5.6570228791364063e-01 1.6393580534185570e-01 8.0381689697372483e-01  6.2277449979634425e-01 7.4807829651252089e-01 4.0075021504260516e-01  6.5030762665609876e-01 5.6140156809305841e-01 6.7286512763636508e-01  5.9212653223742517e-01 7.7333652530760066e-01 3.1249042184889336e-01  6.3050907232639153e-01 7.2516608696456941e-01 4.4229172132511024e-01  5.4966226594571432e-01 7.3368345807052138e-01 2.3622988995270333e-01  5.9144068077054957e-01 7.7336736641950954e-01 3.1095057792412756e-01  6.3122133102872391e-01 7.3036933666472825e-01 4.3614648984791243e-01  6.4758894005442469e-01 6.5791222104335256e-01 5.5139123946098534e-01  6.3978516383368722e-01 7.0313569840107448e-01 4.8321072168279472e-01  5.9165253603654266e-01 7.7335566378100895e-01 3.1142891203795670e-01  5.1918419386363035e-01 6.4397690183667844e-01 1.9708987932538805e-01  6.3765428544160008e-01 7.1112689203746904e-01 4.7000129375684063e-01  6.4535657605456898e-01 6.7499988836732261e-01 5.2673671989376880e-01  5.9267432272703746e-01 7.7328224214449792e-01 3.1374838443576020e-01  6.0157774907406347e-01 7.7065327976588138e-01 3.3530923746472741e-01  6.4248486854853482e-01 4.6711752592204209e-01 7.6539677662367833e-01  6.1982496060574399e-01 7.4598488112053596e-01 3.9942975035528167e-01  6.0809915693942895e-01 7.6639525552879539e-01 3.5288283029060225e-01  5.9672859754506091e-01 7.7256514950649302e-01 3.2320944758613618e-01  5.1355514998104035e-01 6.2044241257591271e-01 1.9102892037535457e-01  6.2997453366963951e-01 7.3344420526264120e-01 4.3036976458782211e-01  6.4885254287646099e-01 6.4566808325266500e-01 5.6847525916141395e-01  5.9394688306262766e-01 7.7312886002007564e-01 3.1667449362498123e-01  5.2250097061911194e-01 9.7776332992644252e-02 6.3557875446988565e-01  5.9027925703942430e-01 2.2724916427746006e-01 8.5016034276595942e-01  5.9868682402043771e-01 7.7190719945417341e-01 3.2801921598009209e-01  6.1062569165792469e-01 7.6409716228325797e-01 3.6028943764679422e-01  6.4938085091227393e-01 5.4098959538939029e-01 6.9508693138308697e-01  5.6299405578966966e-01 7.5534192554076829e-01 2.5738396032411581e-01  6.1309141275248191e-01 7.6161841090445070e-01 3.6769790253347301e-01  5.9179043355519778e-01 7.7334828319107241e-01 3.1174139448381716e-01  6.0489267502667088e-01 7.6876521504611484e-01 3.4400427048163396e-01  5.1798995450858976e-01 6.3910729351085138e-01 1.9577487055383808e-01  6.3920108955251853e-01 4.9458235292288211e-01 7.3779046231011836e-01  6.2449128448562130e-01 7.4502579882558528e-01 4.0730245834914591e-01  6.4112369008098857e-01 4.5728596413696132e-01 7.7352601043854208e-01  6.0402741543957195e-01 7.6927528530745015e-01 3.4173500385810562e-01  5.9532874565448257e-01 7.7289983547487850e-01 3.1988431274785478e-01  6.2639899354301687e-01 7.4128744101106581e-01 4.1500096635010109e-01  5.9207608540746515e-01 7.7179850163062746e-01 3.1462977062851488e-01  6.3488059540027608e-01 7.2024602031403917e-01 4.5439921303141995e-01  6.3246565352954598e-01 4.0011361517654159e-01 8.1449098263671682e-01  5.9881221855598366e-01 7.7189675133159275e-01 3.2828565521301362e-01  6.1931592445