<?xml version="1.0"?>
<VTKFile type="UnstructuredGrid"  version="0.1"  >
<UnstructuredGrid>
<Piece  NumberOfPoints="4940" NumberOfCells="9650">
<Points>
<DataArray  type="Float64"  NumberOfComponents="3"  format="ascii">500 250 0  0 250 0  250 500 0  250 0 0  256.8885856082646 499.9050767557906 0  263.7719401218049 499.6203791065173 0  270.6448364229772 499.1461232471188 0  277.5020553257866 498.4826693209355 0  284.3383895508592 497.6305211460281 0  291.1486476865662 496.5903258312597 0  297.9276581259182 495.3628732847843 0  304.6702729675493 493.9490956196674 0  311.3713719748657 492.3500664368026 0  318.0258664141369 490.5670000199653 0  324.6287029687753 488.6012504015818 0  331.1748675330201 486.4543103455647 0  337.6593890460416 484.1278102064655 0  344.0773432429536 481.6235166997244 0  350.4238564271474 478.9433315480048 0  356.694109139292 476.0892900492477 0  362.88333985546 473.0635595140469 0  368.9868485575419 469.8684376402048 0  375.0000003153078 466.5063507640667 0  380.9182288257928 462.9798520074548 0  386.7370398729688 459.2916193419558 0  392.4520147244077 455.444453565817 0  398.0588135356345 451.4412761437442 0  403.5531785622926 447.285127045646 0  408.9309374414144 442.9791624087773 0  414.1880064015299 438.5266521049243 0  419.3203932989752 433.9309773069245 0  424.324200661095 429.1956279150535 0  429.1956286596235 424.3241998957182 0  433.9309780058756 419.3203925397119 0  438.5266527445345 414.1880056671062 0  442.9791630130591 408.9309367076756 0  447.2851276060475 403.5531778422888 0  451.4412766621026 398.0588128303826 0  455.4444540361634 392.4520140460735 0  459.2916197786263 386.7370392045948 0  462.9798524073514 380.9182281752347 0  466.5063511234856 374.9999996927758 0  469.8684379657123 368.9868479560565 0  473.0635598144817 362.8833392617846 0  476.0892903190255 356.6941085676214 0  478.9433317963513 350.4238558609745 0  481.6235169154735 344.0773427117675 0  484.12781039012 337.6593885555221 0  486.4543105028062 331.1748670749914 0  488.601250531677 324.6287025528375 0  490.5670001317469 318.0258660188321 0  492.3500665291326 311.3713716102628 0  493.949095695951 304.6702726271575 0  495.3628733416623 297.9276578347343 0  496.5903258712341 291.1486474470129 0  497.6305211749058 284.3383893426084 0  498.4826693388848 277.502055163614 0  499.1461232580606 270.6448362909296 0  499.6203791109319 263.7719400417897 0  499.9050767571306 256.8885855596534 0  499.9050767559877 243.1114143988867 0  499.6203791069493 236.2280598860241 0  499.1461232485393 229.3551635941651 0  498.4826693235677 222.4979446979962 0  497.6305211491849 215.6616104719064 0  496.5903258357701 208.8513523404629 0  495.3628732906988 202.0723419043604 0  493.9490956264813 195.3297270628552 0  492.3500664487791 188.6286280724281 0  490.5670000344809 181.9741336371959 0  488.6012504175981 175.3712970824318 0  486.4543103623226 168.8251325157939 0  484.1278102222298 162.3406109960628 0  481.6235167152198 155.9226567951971 0  478.9433315621651 149.5761436051346 0  476.0892900516498 143.3058908657982 0  473.063559513628 137.1166601437124 0  469.8684376406648 131.0131514433083 0  466.5063507675389 124.9999996907064 0  462.9798520124137 119.0817711822745 0  459.2916193464549 113.2629601339176 0  455.4444535642773 107.5479852733717 0  451.4412761528674 101.9411864767781 0  447.2851270583545 96.44682145403524 0  442.9791624165781 91.06906256805769 0  438.5266521117469 85.81199360630404 0  433.9309773156125 80.67960671046254 0  429.1956279150353 75.67579933888632 0  424.3241998888952 70.80437133373906 0  419.3203925223282 66.06902197812161 0  414.1880056411937 61.47334723289828 0  408.9309366751728 57.0208369601728 0  403.5531778009394 52.71487236176898 0  398.058812796452 48.55872331295853 0  392.4520140187753 44.55554594490843 0  386.7370391799677 40.70838020528396 0  380.9182281475119 37.02014757560744 0  374.9999996718656 33.49364886444181 0  368.9868479340393 30.13156202237255 0  362.8833392380029 26.93644017348339 0  356.6941085456942 23.91070967062674 0  350.4238558420009 21.0566681953261 0  344.0773426899492 18.37648307566465 0  337.6593885328982 15.87218960140942 0  331.1748670549786 13.54568949032341 0  324.6287025315056 11.39874946165088 0  318.0258660010876 9.432999863235466 0  311.3713716017894 7.649933468721599 0  304.6702726190621 6.050904302234756 0  297.9276578269805 4.637126656823085 0  291.148647441857 3.409674127905504 0  284.3383893425031 2.369478825079682 0  277.502055159398 1.517330660648639 0  270.6448362875833 0.853876741662134 0  263.7719400401456 0.3796208889774277 0  256.8885855592052 0.09492324285704967 0  243.1114143979462 0.09492324403817065 0  236.2280598850882 0.3796208931023841 0  229.3551635938215 0.8538767514891958 0  222.4979446968584 1.517330676558146 0  215.6616104703111 2.369478851036291 0  208.8513523382973 3.409674164591252 0  202.0723419066374 4.637126708856528 0  195.3297270659513 6.050904372824903 0  188.628628074828 7.649933550613184 0  181.9741336377093 9.432999965373938 0  175.3712970793675 11.39874958336037 0  168.8251325057572 13.54568964112298 0  162.340610986655 15.87218978129263 0  155.9226567874317 18.37648328793418 0  149.576143602509 21.05666843898663 0  143.3058908718157 23.91070994551046 0  137.1166601505524 26.93644048291054 0  131.0131514451933 30.13156235831508 0  124.9999996848412 33.49364923584736 0  119.0817711715717 37.0201479941652 0  113.2629601211624 40.70838066187849 0  107.5479852622251 44.55554644345162 0  101.9411864693332 48.55872385260452 0  96.44682143286516 52.71487295812284 0  91.06906254351222 57.02083760363669 0  85.81199358272519 61.4733479087879 0  80.67960667988106 66.06902271253972 0  75.67579930062769 70.80437212218331 0  70.80437129287643 75.67580015310926 0  66.06902193673014 80.67960752263491 0  61.47334718684866 85.81199441168215 0  57.02083692524275 91.0690633672404 0  52.71487232786438 96.44682224262129 0  48.55872328070024 101.941187247437 0  44.55554591578033 107.5479860232332 0  40.7083801742321 113.2629608675606 0  37.02014754791168 119.0817718975441 0  33.49364883372994 125.000000381329 0  30.13156199866361 131.0131521097709 0  26.9364401549829 137.1166607985551 0  23.91070965524918 143.3058914868915 0  21.05666818346614 149.576144185037 0  18.37648306853811 155.9226573275967 0  15.8721895918909 162.3406114925245 0  13.54568948170046 168.8251329701392 0  11.39874945301878 175.3712974960928 0  9.432999857087736 181.9741340206533 0  7.649933466342702 188.6286284076045 0  6.050904301250966 195.3297273853278 0  4.637126656808988 202.0723421730917 0  3.409674127767772 208.8513525589684 0  2.369478824521138 215.6616106615248 0  1.517330660909465 222.4979448382452 0  0.8538767414496533 229.355163714981 0  0.3796208887135322 236.2280599646376 0  0.09492324266324204 243.1114144478261 0  0.0949232442452228 256.8885856095658 0  0.3796208935834784 263.7719401236316 0  0.8538767530323526 270.6448364248016 0  1.517330679476544 277.5020553295092 0  2.369478854618649 284.3383895555228 0  3.409674170191892 291.1486476952655 0  4.6371267162381 297.9276581311522 0  6.050904381420935 304.6702729724059 0  7.649933562385399 311.3713719716595 0  9.43299997979841 318.0258664133013 0  11.3987495994252 324.6287029719946 0  13.54568965885832 331.174867545904 0  15.87218979367188 337.6593890464085 0  18.37648329843151 344.0773432384132 0  21.05666844777872 350.423856417535 0  23.91070995156048 356.6941091410045 0  26.93644048988043 362.8833398632205 0  30.13156235982007 368.9868485575877 0  33.49364924138357 375.0000003247478 0  37.0201480006036 380.9182288389023 0  40.70838066758398 386.7370398875706 0  44.55554644477201 392.4520147396792 0  48.55872386086904 398.0588135419111 0  52.71487295981296 403.5531785693063 0  57.02083760525949 408.9309374584583 0  61.47334790862246 414.1880064170849 0  66.06902271205095 419.320393319588 0  70.80437211216579 424.3242006890749 0  75.67580013809859 429.195628692521 0  80.6796075127923 433.930978054209 0  85.81199439754931 438.5266528008431 0  91.06906334717917 442.9791630582355 0  96.44682221438322 447.2851276501571 0  101.9411872243843 451.441276702356 0  107.5479859945825 455.4444540643537 0  113.2629608446994 459.2916198108319 0  119.0817718768376 462.9798524393601 0  125.0000003647644 466.5063511567065 0  131.0131521012763 469.8684379967393 0  137.1166607840049 473.0635598376539 0  143.3058914748804 476.0892903390826 0  149.5761441732679 478.9433318113714 0  155.9226573130112 481.6235169255377 0  162.3406114779862 484.1278104026658 0  168.8251329570439 486.4543105138039 0  175.3712974805475 488.601250542119 0  181.9741340135204 490.5670001408953 0  188.6286284005059 492.3500665318597 0  195.3297273788229 493.9490956972913 0  202.0723421640089 495.3628733414168 0  208.8513525529672 496.5903258712308 0  215.6616106544547 497.6305211744985 0  222.4979448327038 498.4826693384772 0  229.3551637102845 499.1461232581612 0  236.2280599621369 499.6203791111485 0  243.1114144470173 499.9050767573145 0  155.2373389820306 474.8197567317462 0  25.36256300907667 153.9152755065208 0  432.3709625126712 412.6214396304305 0  6.013151705810699 246.637913163471 0  246.6379131630491 493.986848294322 0  338.6995838441862 22.68244767887072 0  477.3175523131281 338.6995838660569 0  493.9868482700757 246.6379131399102 0  246.6201155078769 6.218451882810491 0  417.6179310263282 72.7156044707053 0  102.2232990934413 445.0100869616822 0  63.66330858966404 92.20354579482142 0  391.3105220491464 50.73522820883105 0  72.79295043967942 418.0702734974704 0  448.290574428537 108.25674339002 0  402.4604651193511 440.7462829841712 0  97.55317348421397 59.11376320116034 0  136.7376477664901 33.58246472647134 0  363.3288394375288 465.6947312928271 0  44.0678766556007 381.0860953771871 0  469.6905266180034 142.3890690100806 0  22.68244791668644 338.6995843487432 0  338.699584349159 477.317552078365 0  173.389488083762 18.6681884918202 0  483.4809734778481 179.7121987795732 0  13.50237455842738 306.4709525540879 0  305.9825168523021 487.24416992
[...]
<PointData  Vectors="f_12"> 
<DataArray  type="Float64"  Name="f_12"  NumberOfComponents="3" format="ascii">4.8019897338653034e-01 8.1719944237593420e-02 3.8985856566778937e-01  4.5706476731948731e-01 1.6842852258312180e-01 1.9374994108615623e-01  5.0232415222449278e-01 8.3326827067701156e-02 5.2631035185611252e-01  5.2488608531389869e-01 6.3368358849352402e-01 2.3987667979572833e-01  5.0278385691837546e-01 8.3532291140572271e-02 5.2895817260354527e-01  5.0320163836163889e-01 8.3724354933506606e-02 5.3135735216204305e-01  5.0360781848778635e-01 8.3915545827597346e-02 5.3368372453017443e-01  5.0397734490524748e-01 8.4093295346021654e-02 5.3579499634879890e-01  5.0432118107413237e-01 8.4262112133792685e-02 5.3775481502528788e-01  5.0463746350441352e-01 8.4420095539209622e-02 5.3955369049395363e-01  5.0492644420495358e-01 8.4566769933665506e-02 5.4119405453282365e-01  5.0519056543981977e-01 8.4702782204408703e-02 5.4269053356317032e-01  5.0542707754959193e-01 8.4826103390105420e-02 5.4402836275522548e-01  5.0563406201213779e-01 8.4935284993534296e-02 5.4519745824970123e-01  5.0579216501775703e-01 8.5019628142225731e-02 5.4608919263526312e-01  5.0596420881607829e-01 8.5111700840617838e-02 5.4705881295512471e-01  5.0605261930120182e-01 8.5159688708061926e-02 5.4755636412376429e-01  5.0614684101712926e-01 8.5210658106456297e-02 5.4808662987288892e-01  5.0620457100528971e-01 8.5242039991559437e-02 5.4841135426567045e-01  5.0623736300069455e-01 8.5259868219832183e-02 5.4859575060057841e-01  5.0624873168599838e-01 8.5265829099266055e-02 5.4865968082835892e-01  5.0621202468300308e-01 8.5245852778980225e-02 5.4845328394330439e-01  5.0614400372451285e-01 8.5208844531477257e-02 5.4807086906709279e-01  5.0607087730662781e-01 8.5168807766102736e-02 5.4765966246478370e-01  5.0596645999376166e-01 8.5112094435028887e-02 5.4707205604257703e-01  5.0582069618747239e-01 8.5033734434154781e-02 5.4625083565724120e-01  5.0562960533243995e-01 8.4932014996266833e-02 5.4517293189552574e-01  5.0543608570185439e-01 8.4829598794121150e-02 5.4408018221532151e-01  5.0521629854193029e-01 8.4714511615251842e-02 5.4283731903979049e-01  5.0494233676259404e-01 8.4573187842290107e-02 5.4128538886881550e-01  5.0465876729659431e-01 8.4428771644483591e-02 5.3967628003866397e-01  5.0434024368743424e-01 8.4269298232969081e-02 5.3786498326462850e-01  5.0399054554675982e-01 8.4097364540979727e-02 5.3587216374623303e-01  5.0362424062679478e-01 8.3920580984556112e-02 5.3377990595211888e-01  5.0320456564142024e-01 8.3722807645711370e-02 5.3137643160430870e-01  5.0276154291923458e-01 8.3519247313754416e-02 5.2883224906576509e-01  5.0230968840872214e-01 8.3316695142470587e-02 5.2623005525607525e-01  5.0180735437651247e-01 8.3098502072348035e-02 5.2332806547726574e-01  5.0125250459303317e-01 8.2866086193726568e-02 5.2011179146636677e-01  5.0068343468146614e-01 8.2636300464842549e-02 5.1680162714918387e-01  5.0010394611324460e-01 8.2411370988533433e-02 5.1341887754513926e-01  4.9947415240223075e-01 8.2178352643505870e-02 5.0972815807246197e-01  4.9879341267078703e-01 8.1939132093194658e-02 5.0572310787358088e-01  4.9809227713858534e-01 8.1706994324482946e-02 5.0158047441310427e-01  4.9734810855405831e-01 8.1476869598146082e-02 4.9716411291645474e-01  4.9656835583641096e-01 8.1253290407061696e-02 4.9251549818121004e-01  4.9575686190633156e-01 8.1040392051755533e-02 4.8765460455470011e-01  4.9491663278334141e-01 8.0841483744181653e-02 4.8259731471626288e-01  4.9401100421044380e-01 8.0653607840617952e-02 4.7711685161758027e-01  4.9307763893891698e-01 8.0486905974108611e-02 4.7143945427471157e-01  4.9210992539756027e-01 8.0346271063203134e-02 4.6551927080872291e-01  4.9109915887181621e-01 8.0232629787057280e-02 4.5930170531516784e-01  4.9005771295826872e-01 8.0154835469512492e-02 4.5285643853342022e-01  4.8895721456912000e-01 8.0116542607792413e-02 4.4600389056919215e-01  4.8782293887295708e-01 8.0125883186194818e-02 4.3889586023538302e-01  4.8666026677012930e-01 8.0189815394696093e-02 4.3156150256123860e-01  4.8544716533729765e-01 8.0318181944845718e-02 4.2385637298208778e-01  4.8420018586926578e-01 8.0520613565007712e-02 4.1587802183809031e-01  4.8292312002892646e-01 8.0800653566888980e-02 4.0764983319976078e-01  4.8163495948066931e-01 8.1157798730433189e-02 3.9929375291294422e-01  4.7883386254495458e-01 8.2311469047430544e-02 3.8085439132625504e-01  4.7742709735478123e-01 8.3076581489572934e-02 3.7146893765064032e-01  4.7600685243012791e-01 8.3999982578798024e-02 3.6189741880256027e-01  4.7453550324824878e-01 8.5128299193446472e-02 3.5187764797820331e-01  4.7305680053474175e-01 8.6476770384364243e-02 3.4167879962390058e-01  4.7156636311326333e-01 8.8065341079369086e-02 3.3126948421877178e-01  4.7007699363817274e-01 8.9953111533389044e-02 3.2069683804800819e-01  4.6858774500175898e-01 9.2175577661275807e-02 3.0994204317489044e-01  4.6711880810195605e-01 9.4777015524158084e-02 2.9911130332213942e-01  4.6568121411684033e-01 9.7814024635686156e-02 2.8824688412853439e-01  4.6426410070857055e-01 1.0142086699093086e-01 2.7720869597413150e-01  4.6291449879382185e-01 1.0560848312315413e-01 2.6628968128832370e-01  4.6163414364758071e-01 1.1052602759987276e-01 2.5541988557282408e-01  4.6043969104868515e-01 1.1635869773134069e-01 2.4459603780681888e-01  4.5935628347862156e-01 1.2324504072258034e-01 2.3390364405643171e-01  4.5847263661156218e-01 1.3147337562616812e-01 2.2367318437238726e-01  4.5772713203099402e-01 1.4009350352749805e-01 2.1415128618913920e-01  4.5675971421897271e-01 1.5455631203836612e-01 2.0042774316777312e-01  4.5825319422471722e-01 2.0506794314496685e-01 1.8135964164513677e-01  4.8453588446518497e-01 4.2281761885751723e-01 2.0332634628761490e-01  5.5945667340443239e-01 6.4293187936801699e-01 3.7467636988139336e-01  5.8695037909492298e-01 4.0771197863139935e-01 7.3354328892694887e-01  5.2101201655998586e-01 1.7095373830243377e-01 6.2444580415096074e-01  4.8662948840443510e-01 1.9996961229408514e-01 3.8153551805452418e-01  5.1212980699735644e-01 2.9002215565224221e-01 4.7809799323105090e-01  5.6513696277329339e-01 2.8183468898698116e-01 7.6101504002768550e-01  6.2717991055910327e-01 4.4302407227275614e-01 7.7711792143488978e-01  6.4898768366486881e-01 5.5524201278775509e-01 6.7449758676088867e-01  6.4848326919473664e-01 5.5514254917735739e-01 6.7499498366097199e-01  6.4718919425616328e-01 5.5574430504573702e-01 6.7427179672219362e-01  6.4921953267176180e-01 5.9363108936022468e-01 6.3082384535397074e-01  6.5066863023513943e-01 6.0031417012520183e-01 6.2007734092201960e-01  6.2921607026504467e-01 4.2392580892226944e-01 8.0423948989119454e-01  5.6740994153762003e-01 1.8390468206289512e-01 8.2150286622713475e-01  5.1136605054301676e-01 9.3587159556049918e-02 5.8744914035861462e-01  4.8126801867607077e-01 8.4084495905125817e-02 4.0147151903999134e-01  4.6490302132582095e-01 1.0295141427141292e-01 2.8436741639937124e-01  4.5837282675599295e-01 1.5299501366855112e-01 2.1398215366445664e-01  4.5994186731897407e-01 2.2882276846210869e-01 1.7888922905117394e-01  4.6871202134829959e-01 3.3159806560978761e-01 1.6726854771073063e-01  4.8278766626553393e-01 4.4199972265483484e-01 1.7290297339319946e-01  4.9185044397704752e-01 5.0279633384208366e-01 1.7782709177308303e-01  4.9491008922947977e-01 5.2210447453611397e-01 1.8103156497932832e-01  4.8873809776838867e-01 4.8479166413365110e-01 1.7641786281328642e-01  4.7668842609055567e-01 3.9418777055501641e-01 1.7208958561645601e-01  4.6422556887548716e-01 2.7417465654154111e-01 1.7707716116871183e-01  4.5897702132218449e-01 1.6928362606749417e-01 2.0881714828649192e-01  4.6668234706601941e-01 1.0612873573449126e-01 2.9473002371799067e-01  4.9346726423899345e-01 8.7132835796130112e-02 4.7935047663465574e-01  5.4680575756801064e-01 1.3591239704920199e-01 7.5389725169621269e-01  6.0937979832645528e-01 3.1170621932807641e-01 8.5959390351251552e-01  6.4057148021051846e-01 5.3099037454274967e-01 6.9834502865206249e-01  6.3570702490487085e-01 6.7063879456207387e-01 5.2162045456306361e-01  6.0435136208404139e-01 7.2673844981490299e-01 4.0155982943629664e-01  5.4801093421119318e-01 6.8704706439659347e-01 2.8834921669864538e-01  4.9723734422672872e-01 5.4524899265998572e-01 1.7945262932856726e-01  5.8247644650883568e-01 6.0263827867342423e-01 4.9997269409153267e-01  5.8864093518898242e-01 3.8852795498548143e-01 7.6354434319479525e-01  5.0131587521159271e-01 2.0255984068297769e-01 4.8213620415524844e-01  4.6692963039350815e-01 1.4044880397122056e-01 2.8292979606590396e-01  4.7380821665342904e-01 1.3239348910334850e-01 3.3443060960269322e-01  5.2995403672580010e-01 2.4294049504279391e-01 6.3816938320700556e-01  6.0608374517505448e-01 5.9219111327901708e-01 5.8285882747633921e-01  6.1258020317486017e-01 6.8086589092429084e-01 4.7649283544372778e-01  5.6946217647158681e-01 4.3913259111708441e-01 6.4759721388899316e-01  5.1636837187120133e-01 4.0772136808245074e-01 4.0809992425330710e-01  5.2210120998775078e-01 5.1619180388097763e-01 3.4001289425701647e-01  5.7537619098683424e-01 5.7369102790616722e-01 5.1901620840516638e-01  6.1039006758210834e-01 6.5350637265740030e-01 5.1077259043505563e-01  5.9269209812388091e-01 7.2347387632933180e-01 3.7985192308103904e-01  5.3538051714538393e-01 6.6841393525248882e-01 2.5615390484786993e-01  4.9131111798229005e-01 5.1291801870514298e-01 1.7036686090716846e-01  5.1461843804082208e-01 6.0518688614088945e-01 2.1869089841260073e-01  5.7624590147221233e-01 7.1887784749635508e-01 3.4737082603772512e-01  6.2023032888841434e-01 7.1819798158831005e-01 4.3854888482297133e-01  6.4151649026724622e-01 6.6402260986590977e-01 5.3612251716115955e-01  6.4395483854094959e-01 5.4873318580781150e-01 6.8113979083620380e-01  6.2333525599500716e-01 3.7719053200254782e-01 8.2616872032725253e-01  5.7826125356815383e-01 2.0073787109446892e-01 8.4192019021388687e-01  5.2630894920227178e-01 1.0436231616176159e-01 6.6410583094380149e-01  4.8980166485932441e-01 8.2410533253259505e-02 4.5794719116767235e-01  4.7024160879037702e-01 9.1344094939531106e-02 3.2655082705677041e-01  4.6113159851262148e-01 1.1300262912089538e-01 2.5526315418947765e-01  4.5770615836415685e-01 1.3576764227787269e-01 2.2020356444205985e-01  4.5687053305142317e-01 1.5094872947240309e-01 2.0599373527101275e-01  4.5687737887086161e-01 1.5202888038270174e-01 2.0546225234465329e-01  4.5758192551392496e-01 1.3866895389857736e-01 2.1789994787172209e-01  4.5992714098046128e-01 1.1724270009742847e-01 2.4514923473441710e-01  4.6617336829182515e-01 9.7448615675923916e-02 2.9635602160915636e-01  4.7804023457955147e-01 8.1343866925531333e-02 3.8244576736026648e-01  4.9978009977605559e-01 8.3568313179935266e-02 5.1974200650480751e-01  5.3409919310257492e-01 1.1320484669612130e-01 7.0272879259541521e-01  5.8118269549778234e-01 2.1573785412227381e-01 8.4790266938947323e-01  6.2407936337097714e-01 4.1975380335647405e-01 7.9536392935493039e-01  6.4014923696100057e-01 6.3680888955739623e-01 5.7011736333816465e-01  6.3693288828227435e-01 7.2820139700011022e-01 4.4068989202365894e-01  6.3922920221366253e-01 6.8887498973712291e-01 4.9997899113951544e-01  6.4342957506314391e-01 6.3340524669219911e-01 5.7729731479204005e-01  6.4522612529568046e-01 6.3268022504178478e-01 5.7986545741871642e-01  6.4123970880182779e-01 6.5756674968068329e-01 5.4478949904538942e-01  6.2719001065366187e-01 6.7452346195207957e-01 5.0660156976374149e-01  5.9087545833411736e-01 6.2119936925295316e-01 5.0995912246222530e-01  5.2518686057277253e-01 4.4055120504162754e-01 4.3433964663634628e-01  4.9257043864017236e-01 1.8928451637525823e-01 4.3024289703350865e-01  5.4366501141169621e-01 2.0428126974581232e-01 7.2525007302714384e-01  6.0074851718074085e-01 5.0387832640679420e-01 6.6744729972330330e-01  5.5454433206434695e-01 6.6549261018780137e-01 3.2981982162827073e-01  4.8386064610661234e-01 4.4881974602239072e-01 1.8535101523873199e-01  4.6057457851296940e-01 2.5061089448185714e-01 1.6635200192331889e-01  4.5797914178419297e-01 2.0892615956958038e-01 1.7610026596792913e-01  4.5754962069956867e-01 1.9213764167737363e-01 1.8283774703076228e-01  4.5722597338611126e-01 1.7990686704468642e-01 1.8805767076337790e-01  4.5711087488941715e-01 1.5845860314951485e-01 1.9979039188718534e-01  4.5731321723369661e-01 1.4974063655335279e-01 2.0604778115630937e-01  4.5765193497626083e-01 1.4202368266297966e-01 2.1256078079561694e-01  4.5810112489133570e-01 1.3523193507448969e-01 2.1922470789537155e-01  4.5864487020055789e-01 1.2921782131877316e-01 2.2603455635034395e-01  4.5926755688364773e-01 1.2387789605458470e-01 2.3295835209451413e-01  4.5995757145014177e-01 1.1912400718502675e-01 2.3997824700554565e-01  4.6070271233241300e-01 1.1488520021161402e-01 2.4706135436704102e-01  4.6149543631915668e-01 1.1109423278545816e-01 2.5420020967984297e-01  4.6232737283869707e-01 1.0769861278756519e-01 2.6137306836329988e-01  4.6319327878247069e-01 1.0465442845213842e-01 2.6857167546721195e-01  4.6408134430727105e-01 1.0192791085918568e-01 2.7574111340043750e-01  4.6500048558199175e-01 9.9455535106656126e-02 2.8297293117430433e-01  4.6593920934227123e-01 9.7227026714882842e-02 2.9019906658359540e-01  4.6688611593526319e-01 9.5234406595721299e-02 2.9735134056818069e-01  4.6786070461729484e-01 9.3411833327694677e-02 3.0458957061711139e-01  4.6884319568123634e-01 9.1773116442096153e-02 3.1177904767447762e-01  4.6981864678705121e-01 9.0317615926080605e-02 3.1882461268229917e-01  4.7080862253467798e-01 8.8999537140694238e-02 3.2588635450314329e-01  4.7180168409418011e-01 8.7808986874963038e-02 3.3289831923634189e-01  4.7279913064278045e-01 8.6739794830258940e-02 3.3986941060062159e-01  4.7379676952209554e-01 8.5782432635684511e-02 3.4677777620098960e-01  4.7479696267538607e-01 8.4923154030348461e-02 3.5364538265108464e-01  4.7579985345719572e-01 8.4155506415485234e-02 3.6047535096096778e-01  4.7679158169745223e-01 8.3479773640734195e-02 3.6717845753548861e-01  4.7778402773472778e-01 8.2881087329501876e-02 3.7383794108801982e-01  4.7877774094477393e-01 8.2351768291918689e-02 3.8046067624419128e-01  4.7975362502759250e-01 8.1897188484335859e-02 3.8692162312225603e-01  4.8073335371327724e-01 8.1501500193231310e-02 3.9336651075536366e-01  4.8170607107492697e-01 8.1163497649642952e-02 3.9972678685628171e-01  4.8266800683464117e-01 8.0881192423748000e-02 4.0597882963451881e-01  4.8362158705215569e-01 8.0649005302334875e-02 4.1214098598397125e-01  4.8456525049729959e-01 8.0463693894205268e-02 4.1820469387183973e-01  4.8550177922663623e-01 8.0321549545980281e-02 4.2418925207574110e-01  4.8643469765082353e-01 8.0219072802971567e-02 4.3011849518166734e-01  4.8734169165184249e-01 8.0155324609269121e-02 4.3585251849538115e-01  4.8823275288681223e-01 8.0126262195982179e-02 4.4145647846963687e-01  4.8913052304964239e-01 8.0128809659652911e-02 4.4707375685840417e-01  4.9000294810635842e-01 8.0160982433584521e-02 4.5250493481710841e-01  4.9085214534513044e-01 8.0219937613489625e-02 4.5776521051906960e-01  4.9169212497680431e-01 8.0303733676110822e-02 4.6294325131093528e-01  4.9251309800639076e-01 8.0409307312133388e-02 4.6798015157102807e-01  4.9332309694766563e-01 8.0536530703916601e-02 4.7292598950858861e-01  4.9410199624055767e-01 8.0678986521208224e-02 4.7766034617872011e-01  4.9487072304162788e-01 8.0839608323681145e-02 4.8231137048064432e-01  4.9561457466057796e-01 8.1012589580777811e-02 4.8679240494195380e-01  4.9634248178325058e-01 8.1198693659060669e-02 4.9115801940486792e-01  4.9705640404820639e-01 8.1397157210565785e-02 4.9542125844111090e-01  4.9773501250994451e-01 8.1600611908089912e-02 4.9945670762065159e-01  4.9838778922850352e-01 8.1808971270465922e-02 5.0332309239606299e-01  4.9903109228848513e-01 8.2026525348247420e-02 5.0711839320006780e-01  4.9964222965437316e-01 8.2244509083560902e-02 5.1070993339142468e-01  5.0022351992766367e-01 8.2461992983954915e-02 5.1411356525102037e-01  5.0078462174794480e-01 8.2680897100902123e-02 5.1738719086175378e-01  5.0132330362969180e-01 8.2899407075068723e-02 5.2051937384729541e-01  5.0182917200854771e-01 8.3112042078470422e-02 5.2345087005925217e-01  4.9278364714463180e-01 8.0450498659187575e-02 4.6963416221093318e-01  6.3467854882319819e-01 5.2287396372486705e-01 7.0377848439173774e-01  5.0320499483723735e-01 8.3723917589819744e-02 5.3137904851869822e-01  4.5714180012103955e-01 1.7504064720325607e-01 1.9037244492615304e-01  5.0190083587097734e-01 8.3143429206478325e-02 5.2386553244693579e-01  5.2244391736458629e-01 6.1587372352593261e-01 2.4319170263743170e-01  4.9510239047609467e-01 8.0886381298840238e-02 4.8371604039403376e-01  4.7932332540088585e-01 8.2075218337991057e-02 3.8410061755300529e-01  5.7438072675621576e-01 6.8847261686273675e-01 3.7213382754779195e-01  6.3072231611125917e-01 4.3771000361929746e-01 7.8686297849395626e-01  4.8489113852996785e-01 8.0411226365039973e-02 4.2028990593150922e-01  4.6311541156259445e-01 1.9569683906738033e-01 2.1929451014849502e-01  5.1206556410589488e-01 1.0089392631274828e-01 5.8992771535819610e-01  4.7917827192570817e-01 8.2159664940695765e-02 3.8311623276081230e-01  5.4811638100392057e-01 2.2764689953361839e-01 7.3381407724097636e-01  5.0514985937501711e-01 8.4681166015798393e-02 5.4246110387140656e-01  4.9109201174714734e-01 9.4596090831688032e-02 4.5857409039984687e-01  5.5671437061194906e-01 6.9242496419248045e-01 3.1453661786507370e-01  5.0602696729254404e-01 8.5145721041606504e-02 5.4741315360899656e-01  4.7225705983019461e-01 8.7310087581587398e-02 3.3608675710727992e-01  4.5800580397833640e-01 1.3656832279219011e-01 2.1789196818927431e-01  4.6536864394601374e-01 9.8546968016757705e-02 2.8582456455786803e-01  5.0592184967680875e-01 8.5089765159619274e-02 5.4682021623410815e-01  5.4876641585215669e-01 5.6160619998392802e-01 4.2768938796077244e-01  4.6466401586365774e-01 1.0034103838889681e-01 2.8035520218650711e-01  4.6099258779812730e-01 1.1344869050955912e-01 2.4969822965344030e-01  5.0508846782233041e-01 8.4650898815883835e-02 5.4211233564795269e-01  4.9724084218109998e-01 8.1451677969861039e-02 4.9652001147993891e-01  5.0560890184426843e-01 1.6001061201973601e-01 5.3553576222091959e-01  5.0303944137016188e-01 9.7372639466456870e-02 5.3315223064130068e-01  4.8927539046228269e-01 8.0124834349148480e-02 4.4798901736001762e-01  5.0030780256717389e-01 8.2491153636473302e-02 5.1460951305186875e-01  5.8209509834100581e-01 4.2072935818827500e-01 7.1487809732008589e-01  4.7053567382419187e-01 8.9349027031390069e-02 3.2396445924606487e-01  4.5831104154891822e-01 1.3275112694222024e-01 2.2194301723844811e-01  5.0397141652441602e-01 8.4091405159833210e-02 5.3576095518471734e-01  4.6446863682242256e-01 2.4421987842280338e-01 1.9665987646881386e-01  5.7689474150477926e-01 2.2328743682641294e-01 8.3500102862254111e-01  4.9977922961719368e-01 8.2295817997984480e-02 5.1151308544527296e-01  4.8939930992151043e-01 8.0135638138789017e-02 4.4875058549559227e-01  4.7372523815659046e-01 3.6234763975559064e-01 1.7887422128071770e-01  6.2864451196485949e-01 6.7737119137128365e-01 5.0472144124266682e-01  4.8473252084417207e-01 8.0429877112351500e-02 4.1928837301468402e-01  5.0562106870422763e-01 8.4928657712647682e-02 5.4512488215073340e-01  4.9232917637830143e-01 8.0377509233133762e-02 4.6686293212158697e-01  4.7613108638809332e-01 1.7793516496251710e-01 3.2162642052559881e-01  4.7081885217911140e-01 3.0207914899472760e-01 2.0053743341358546e-01  4.7499873202473569e-01 8.4756499989181472e-02 3.5504184521292764e-01  5.9092011381131104e-01 3.0525847018939406e-01 8.2383829018043730e-01  4.9510158571247892e-01 8.0892770405117068e-02 4.8370347272670666e-01  5.0179679449394254e-01 8.3095116924903956e-02 5.2326748013339064e-01  4.7621128299935228e-01 8.3867585469116129e-02 3.6326084443769291e-01  6.2229424755854368e-01 3.8916231155009939e-01 8.1716726892921365e-01  4.6929196472424706e-01 9.1086149963853488e-02 3.1502923677649558e-01  6.1469124239034711e-01 5.9907046394094188e-01 5.8441208998729888e-01  4.9822254333877553e-01 8.1750393292738727e-02 5.0235139972719167e-01  4.8205592598