<?xml version="1.0"?>
<VTKFile type="UnstructuredGrid"  version="0.1"  >
<UnstructuredGrid>
<Piece  NumberOfPoints="4940" NumberOfCells="9650">
<Points>
<DataArray  type="Float64"  NumberOfComponents="3"  format="ascii">500 250 0  0 250 0  250 500 0  250 0 0  256.8885856082646 499.9050767557906 0  263.7719401218049 499.6203791065173 0  270.6448364229772 499.1461232471188 0  277.5020553257866 498.4826693209355 0  284.3383895508592 497.6305211460281 0  291.1486476865662 496.5903258312597 0  297.9276581259182 495.3628732847843 0  304.6702729675493 493.9490956196674 0  311.3713719748657 492.3500664368026 0  318.0258664141369 490.5670000199653 0  324.6287029687753 488.6012504015818 0  331.1748675330201 486.4543103455647 0  337.6593890460416 484.1278102064655 0  344.0773432429536 481.6235166997244 0  350.4238564271474 478.9433315480048 0  356.694109139292 476.0892900492477 0  362.88333985546 473.0635595140469 0  368.9868485575419 469.8684376402048 0  375.0000003153078 466.5063507640667 0  380.9182288257928 462.9798520074548 0  386.7370398729688 459.2916193419558 0  392.4520147244077 455.444453565817 0  398.0588135356345 451.4412761437442 0  403.5531785622926 447.285127045646 0  408.9309374414144 442.9791624087773 0  414.1880064015299 438.5266521049243 0  419.3203932989752 433.9309773069245 0  424.324200661095 429.1956279150535 0  429.1956286596235 424.3241998957182 0  433.9309780058756 419.3203925397119 0  438.5266527445345 414.1880056671062 0  442.9791630130591 408.9309367076756 0  447.2851276060475 403.5531778422888 0  451.4412766621026 398.0588128303826 0  455.4444540361634 392.4520140460735 0  459.2916197786263 386.7370392045948 0  462.9798524073514 380.9182281752347 0  466.5063511234856 374.9999996927758 0  469.8684379657123 368.9868479560565 0  473.0635598144817 362.8833392617846 0  476.0892903190255 356.6941085676214 0  478.9433317963513 350.4238558609745 0  481.6235169154735 344.0773427117675 0  484.12781039012 337.6593885555221 0  486.4543105028062 331.1748670749914 0  488.601250531677 324.6287025528375 0  490.5670001317469 318.0258660188321 0  492.3500665291326 311.3713716102628 0  493.949095695951 304.6702726271575 0  495.3628733416623 297.9276578347343 0  496.5903258712341 291.1486474470129 0  497.6305211749058 284.3383893426084 0  498.4826693388848 277.502055163614 0  499.1461232580606 270.6448362909296 0  499.6203791109319 263.7719400417897 0  499.9050767571306 256.8885855596534 0  499.9050767559877 243.1114143988867 0  499.6203791069493 236.2280598860241 0  499.1461232485393 229.3551635941651 0  498.4826693235677 222.4979446979962 0  497.6305211491849 215.6616104719064 0  496.5903258357701 208.8513523404629 0  495.3628732906988 202.0723419043604 0  493.9490956264813 195.3297270628552 0  492.3500664487791 188.6286280724281 0  490.5670000344809 181.9741336371959 0  488.6012504175981 175.3712970824318 0  486.4543103623226 168.8251325157939 0  484.1278102222298 162.3406109960628 0  481.6235167152198 155.9226567951971 0  478.9433315621651 149.5761436051346 0  476.0892900516498 143.3058908657982 0  473.063559513628 137.1166601437124 0  469.8684376406648 131.0131514433083 0  466.5063507675389 124.9999996907064 0  462.9798520124137 119.0817711822745 0  459.2916193464549 113.2629601339176 0  455.4444535642773 107.5479852733717 0  451.4412761528674 101.9411864767781 0  447.2851270583545 96.44682145403524 0  442.9791624165781 91.06906256805769 0  438.5266521117469 85.81199360630404 0  433.9309773156125 80.67960671046254 0  429.1956279150353 75.67579933888632 0  424.3241998888952 70.80437133373906 0  419.3203925223282 66.06902197812161 0  414.1880056411937 61.47334723289828 0  408.9309366751728 57.0208369601728 0  403.5531778009394 52.71487236176898 0  398.058812796452 48.55872331295853 0  392.4520140187753 44.55554594490843 0  386.7370391799677 40.70838020528396 0  380.9182281475119 37.02014757560744 0  374.9999996718656 33.49364886444181 0  368.9868479340393 30.13156202237255 0  362.8833392380029 26.93644017348339 0  356.6941085456942 23.91070967062674 0  350.4238558420009 21.0566681953261 0  344.0773426899492 18.37648307566465 0  337.6593885328982 15.87218960140942 0  331.1748670549786 13.54568949032341 0  324.6287025315056 11.39874946165088 0  318.0258660010876 9.432999863235466 0  311.3713716017894 7.649933468721599 0  304.6702726190621 6.050904302234756 0  297.9276578269805 4.637126656823085 0  291.148647441857 3.409674127905504 0  284.3383893425031 2.369478825079682 0  277.502055159398 1.517330660648639 0  270.6448362875833 0.853876741662134 0  263.7719400401456 0.3796208889774277 0  256.8885855592052 0.09492324285704967 0  243.1114143979462 0.09492324403817065 0  236.2280598850882 0.3796208931023841 0  229.3551635938215 0.8538767514891958 0  222.4979446968584 1.517330676558146 0  215.6616104703111 2.369478851036291 0  208.8513523382973 3.409674164591252 0  202.0723419066374 4.637126708856528 0  195.3297270659513 6.050904372824903 0  188.628628074828 7.649933550613184 0  181.9741336377093 9.432999965373938 0  175.3712970793675 11.39874958336037 0  168.8251325057572 13.54568964112298 0  162.340610986655 15.87218978129263 0  155.9226567874317 18.37648328793418 0  149.576143602509 21.05666843898663 0  143.3058908718157 23.91070994551046 0  137.1166601505524 26.93644048291054 0  131.0131514451933 30.13156235831508 0  124.9999996848412 33.49364923584736 0  119.0817711715717 37.0201479941652 0  113.2629601211624 40.70838066187849 0  107.5479852622251 44.55554644345162 0  101.9411864693332 48.55872385260452 0  96.44682143286516 52.71487295812284 0  91.06906254351222 57.02083760363669 0  85.81199358272519 61.4733479087879 0  80.67960667988106 66.06902271253972 0  75.67579930062769 70.80437212218331 0  70.80437129287643 75.67580015310926 0  66.06902193673014 80.67960752263491 0  61.47334718684866 85.81199441168215 0  57.02083692524275 91.0690633672404 0  52.71487232786438 96.44682224262129 0  48.55872328070024 101.941187247437 0  44.55554591578033 107.5479860232332 0  40.7083801742321 113.2629608675606 0  37.02014754791168 119.0817718975441 0  33.49364883372994 125.000000381329 0  30.13156199866361 131.0131521097709 0  26.9364401549829 137.1166607985551 0  23.91070965524918 143.3058914868915 0  21.05666818346614 149.576144185037 0  18.37648306853811 155.9226573275967 0  15.8721895918909 162.3406114925245 0  13.54568948170046 168.8251329701392 0  11.39874945301878 175.3712974960928 0  9.432999857087736 181.9741340206533 0  7.649933466342702 188.6286284076045 0  6.050904301250966 195.3297273853278 0  4.637126656808988 202.0723421730917 0  3.409674127767772 208.8513525589684 0  2.369478824521138 215.6616106615248 0  1.517330660909465 222.4979448382452 0  0.8538767414496533 229.355163714981 0  0.3796208887135322 236.2280599646376 0  0.09492324266324204 243.1114144478261 0  0.0949232442452228 256.8885856095658 0  0.3796208935834784 263.7719401236316 0  0.8538767530323526 270.6448364248016 0  1.517330679476544 277.5020553295092 0  2.369478854618649 284.3383895555228 0  3.409674170191892 291.1486476952655 0  4.6371267162381 297.9276581311522 0  6.050904381420935 304.6702729724059 0  7.649933562385399 311.3713719716595 0  9.43299997979841 318.0258664133013 0  11.3987495994252 324.6287029719946 0  13.54568965885832 331.174867545904 0  15.87218979367188 337.6593890464085 0  18.37648329843151 344.0773432384132 0  21.05666844777872 350.423856417535 0  23.91070995156048 356.6941091410045 0  26.93644048988043 362.8833398632205 0  30.13156235982007 368.9868485575877 0  33.49364924138357 375.0000003247478 0  37.0201480006036 380.9182288389023 0  40.70838066758398 386.7370398875706 0  44.55554644477201 392.4520147396792 0  48.55872386086904 398.0588135419111 0  52.71487295981296 403.5531785693063 0  57.02083760525949 408.9309374584583 0  61.47334790862246 414.1880064170849 0  66.06902271205095 419.320393319588 0  70.80437211216579 424.3242006890749 0  75.67580013809859 429.195628692521 0  80.6796075127923 433.930978054209 0  85.81199439754931 438.5266528008431 0  91.06906334717917 442.9791630582355 0  96.44682221438322 447.2851276501571 0  101.9411872243843 451.441276702356 0  107.5479859945825 455.4444540643537 0  113.2629608446994 459.2916198108319 0  119.0817718768376 462.9798524393601 0  125.0000003647644 466.5063511567065 0  131.0131521012763 469.8684379967393 0  137.1166607840049 473.0635598376539 0  143.3058914748804 476.0892903390826 0  149.5761441732679 478.9433318113714 0  155.9226573130112 481.6235169255377 0  162.3406114779862 484.1278104026658 0  168.8251329570439 486.4543105138039 0  175.3712974805475 488.601250542119 0  181.9741340135204 490.5670001408953 0  188.6286284005059 492.3500665318597 0  195.3297273788229 493.9490956972913 0  202.0723421640089 495.3628733414168 0  208.8513525529672 496.5903258712308 0  215.6616106544547 497.6305211744985 0  222.4979448327038 498.4826693384772 0  229.3551637102845 499.1461232581612 0  236.2280599621369 499.6203791111485 0  243.1114144470173 499.9050767573145 0  155.2373389820306 474.8197567317462 0  25.36256300907667 153.9152755065208 0  432.3709625126712 412.6214396304305 0  6.013151705810699 246.637913163471 0  246.6379131630491 493.986848294322 0  338.6995838441862 22.68244767887072 0  477.3175523131281 338.6995838660569 0  493.9868482700757 246.6379131399102 0  246.6201155078769 6.218451882810491 0  417.6179310263282 72.7156044707053 0  102.2232990934413 445.0100869616822 0  63.66330858966404 92.20354579482142 0  391.3105220491464 50.73522820883105 0  72.79295043967942 418.0702734974704 0  448.290574428537 108.25674339002 0  402.4604651193511 440.7462829841712 0  97.55317348421397 59.11376320116034 0  136.7376477664901 33.58246472647134 0  363.3288394375288 465.6947312928271 0  44.0678766556007 381.0860953771871 0  469.6905266180034 142.3890690100806 0  22.68244791668644 338.6995843487432 0  338.699584349159 477.317552078365 0  173.389488083762 18.6681884918202 0  483.4809734778481 179.7121987795732 0  13.50237455842738 306.4709525540879 0  305.9825168523021 487.24416992
[...]
<PointData  Vectors="f_12"> 
<DataArray  type="Float64"  Name="f_12"  NumberOfComponents="3" format="ascii">5.5783226185452450e-01 7.4835760297693232e-01 2.4816362672769143e-01  6.2842854857680008e-01 7.3693502525031507e-01 4.2361536675332856e-01  5.3033528948617104e-01 6.8354359546523302e-01 2.1008138072134055e-01  4.8236586294906708e-01 4.4363995257230865e-01 1.6553303836245681e-01  5.2978625492680975e-01 6.8177696921807562e-01 2.0941275962272810e-01  5.2929672961063334e-01 6.8018243999045169e-01 2.0882028821733631e-01  5.2881396341814724e-01 6.7859581079296905e-01 2.0823751542150098e-01  5.2838039679342019e-01 6.7715777287580436e-01 2.0771696123735792e-01  5.2797645656716163e-01 6.7580629857362451e-01 2.0723401609289568e-01  5.2760519080389234e-01 6.7455460121785205e-01 2.0679118740516503e-01  5.2726528041441034e-01 6.7340083002664919e-01 2.0638715516911654e-01  5.2695183649798760e-01 6.7233016087619324e-01 2.0601553920537485e-01  5.2666906661712509e-01 6.7135854288510610e-01 2.0568104706013959e-01  5.2641949062052429e-01 6.7049661049173959e-01 2.0538676152953328e-01  5.2623509479769426e-01 6.6985551249369157e-01 2.0517060894044364e-01  5.2601231196956699e-01 6.6908175370010070e-01 2.0490753710025139e-01  5.2590983919523004e-01 6.6872170709109979e-01 2.0478845900878812e-01  5.2578141424039115e-01 6.6827285450186369e-01 2.0463746717513273e-01  5.2569618811773267e-01 6.6797395577755692e-01 2.0453776939574808e-01  5.2563568500165658e-01 6.6776209651126706e-01 2.0446663632107365e-01  5.2559392782893255e-01 6.6761634224020494e-01 2.0441610784980191e-01  5.2561291726437809e-01 6.6768301402825536e-01 2.0443858594175612e-01  5.2566617349339684e-01 6.6787021903070887e-01 2.0450168988460415e-01  5.2571144521044366e-01 6.6803085550572694e-01 2.0455319862818316e-01  5.2579129226535826e-01 6.6831301168554913e-01 2.0464540788823285e-01  5.2592079537450465e-01 6.6876696304194549e-01 2.0479700594580771e-01  5.2610791552516234e-01 6.6941955229682559e-01 2.0501716639936124e-01  5.2628209701575379e-01 6.7002725248600514e-01 2.0522060811487533e-01  5.2648205897125344e-01 6.7072226906033239e-01 2.0545441647321783e-01  5.2675477096157819e-01 6.7166334935542793e-01 2.0577607012111454e-01  5.2702606476974079e-01 6.7259634579551508e-01 2.0609571837547869e-01  5.2733793132863083e-01 6.7366130283015102e-01 2.0646466994633686e-01  5.2768532021163617e-01 6.7484030663100347e-01 2.0687719538488206e-01  5.2804342231014456e-01 6.7604838148664348e-01 2.0730263385665496e-01  5.2847393747615945e-01 6.7748639614721939e-01 2.0781786105920225e-01  5.2892766056907348e-01 6.7899001086309962e-01 2.0836283986515772e-01  5.2937927344549396e-01 6.8047534373985907e-01 2.0890489434545462e-01  5.2990014253307971e-01 6.8216876153186889e-01 2.0953482312500749e-01  5.3049497519828515e-01 6.8407836979385528e-01 2.1026068619213434e-01  5.3109875683389729e-01 6.8599512984329758e-01 2.1099970328286063e-01  5.3170371757845392e-01 6.8789406073082981e-01 2.1174193666045957e-01  5.3238128207337099e-01 6.8998929853375257e-01 2.1258032648768141e-01  5.3313543225305138e-01 6.9228609965605403e-01 2.1352043654697311e-01  5.3391020553537583e-01 6.9460835509086383e-01 2.1449174075183428e-01  5.3474796978916228e-01 6.9707425813961787e-01 2.1555172540244624e-01  5.3563806270766512e-01 6.9964600860512094e-01 2.1668531991553128e-01  5.3657408527194705e-01 7.0229688879981966e-01 2.1788669482110401e-01  5.3755067351962937e-01 7.0500651735526954e-01 2.1915129463437424e-01  5.3864223730241967e-01 7.0795668724013361e-01 2.2058010000390935e-01  5.3977920760189491e-01 7.1095696176904188e-01 2.2208213222541420e-01  5.4097294534735174e-01 7.1401622416229971e-01 2.2367641742923758e-01  5.4224866385170056e-01 7.1719623554781609e-01 2.2539852587280029e-01  5.4357967217778713e-01 7.2040561979842532e-01 2.2721547604247336e-01  5.4503357333739733e-01 7.2379066969815520e-01 2.2922858035398966e-01  5.4656027556377751e-01 7.2721201684949921e-01 2.3136947150548720e-01  5.4815168838520956e-01 7.3063596896749050e-01 2.3363106521065535e-01  5.4986421952327502e-01 7.3415441444468044e-01 2.3610447520898808e-01  5.5166818284025310e-01 7.3768327660903510e-01 2.3875337514307707e-01  5.5355967787582649e-01 7.4119540175554988e-01 2.4156321950875645e-01  5.5548065972069116e-01 7.4459698795503548e-01 2.4447470231300053e-01  5.6003597665950289e-01 7.5171863733383426e-01 2.5162329520890825e-01  5.6239768853340111e-01 7.5500941380755948e-01 2.5544382185344561e-01  5.6484597044009377e-01 7.5811641940293961e-01 2.5950666819126100e-01  5.6751797420296857e-01 7.6116397508209144e-01 2.6404068233473243e-01  5.7030522969764808e-01 7.6396809892416084e-01 2.6890992749855475e-01  5.7323548755165166e-01 7.6651986013443640e-01 2.7416740981143400e-01  5.7629821751198906e-01 7.6873628489809565e-01 2.7985295227045781e-01  5.7951917509146844e-01 7.7059652989529193e-01 2.8603420239688765e-01  5.8286675525382603e-01 7.7202588722303589e-01 2.9269307139213574e-01  5.8632909332680538e-01 7.7296784505155358e-01 2.9985399514482536e-01  5.8999590528662338e-01 7.7335837947889974e-01 3.0777925277724122e-01  5.9374416283815612e-01 7.7314255514211017e-01 3.1625702174090575e-01  5.9760945645363739e-01 7.7224869806565521e-01 3.2543664843717984e-01  6.0163830393707129e-01 7.7057159953416510e-01 3.3555745144806370e-01  6.0577403104031080e-01 7.6804728627333185e-01 3.4657542641655598e-01  6.0997726370057981e-01 7.6459503644652804e-01 3.5854206661335630e-01  6.1423604552845124e-01 7.6014402912213208e-01 3.7154576914409854e-01  6.1851905114700190e-01 7.5457355498083178e-01 3.8572337293088793e-01  6.2281198430546003e-01 7.4774584165742530e-01 4.0126344399720520e-01  6.2706519095566760e-01 7.3958394240910785e-01 4.1821689243580229e-01  6.3115495154533297e-01 7.3016213554107567e-01 4.3634897217162699e-01  6.3517846362057906e-01 7.1880961758548767e-01 4.5670464256601007e-01  6.3894104926806816e-01 7.0571064950120177e-01 4.7878953182892642e-01  6.4241058417502217e-01 6.9051934219586519e-01 5.0301814026950986e-01  6.4545132230664504e-01 6.7304600874756704e-01 5.2942064302748704e-01  6.4793917039777582e-01 6.5301037461433531e-01 5.5812223754232160e-01  6.4973178579874846e-01 6.3007415490512730e-01 5.8922122654863707e-01  6.5065606181380187e-01 6.0391065614525841e-01 6.2266774117766144e-01  6.5052976610973656e-01 5.7420077212699328e-01 6.5819986031977518e-01  6.4911103942685677e-01 5.4062866407403021e-01 6.9531694418577439e-01  6.4619887874038962e-01 5.0313076747965046e-01 7.3300089192843754e-01  6.4162384188859156e-01 4.6202218747627494e-01 7.6950170628564074e-01  6.3531100610842373e-01 4.1808414411074712e-01 8.0281374037631059e-01  6.2705115878514650e-01 3.7146471122093211e-01 8.3050799567735567e-01  6.1678641783699695e-01 3.2311112740628323e-01 8.4988073490872029e-01  6.0499437443039417e-01 2.7592792294807411e-01 8.5815737339600584e-01  5.9115665615350876e-01 2.2947686253632046e-01 8.5163054271757288e-01  5.7443425190671815e-01 1.8364765840390995e-01 8.2466071902636939e-01  5.5552907930029483e-01 1.4118370247949336e-01 7.7707540613987558e-01  5.3512775015750258e-01 1.0907833080805505e-01 6.9989281924615010e-01  5.1624197677267125e-01 9.0613164901502855e-02 6.0848156166636780e-01  5.0650946675236475e-01 8.4002658652339982e-02 5.5627531147507503e-01  5.0383555000821800e-01 8.3009598175130248e-02 5.4181971497263770e-01  5.1161404826440293e-01 8.8117025539948227e-02 5.8667476636986260e-01  5.3410248279212824e-01 1.1185243177519140e-01 7.0032825003055366e-01  5.7470163373231764e-01 1.9225920159374990e-01 8.3622957050266988e-01  6.1880281733226905e-01 3.6495825554407524e-01 8.3292112389819384e-01  6.3888454169901210e-01 5.6633378034621584e-01 6.5706687769032490e-01  6.2455747330230116e-01 7.0624143795095917e-01 4.5970425745079641e-01  5.8904582213648737e-01 7.6245952859329946e-01 3.2076591938320825e-01  5.5362154234572514e-01 7.4178636256573260e-01 2.4469020750394402e-01  5.2908910985596780e-01 6.8007254517963878e-01 2.0959890663373709e-01  5.1315191018845374e-01 6.1851035556167611e-01 1.9138141246106213e-01  5.0180259929270343e-01 5.6351498213842377e-01 1.8033909646871082e-01  4.9345106736041622e-01 5.1615201838300617e-01 1.7314196675133522e-01  4.8712580921729026e-01 4.7627439711082509e-01 1.6852973481563266e-01  4.7897034627240531e-01 4.1858812453931088e-01 1.6401072063913913e-01  4.7569440820441983e-01 3.9376556503320587e-01 1.6247899523317974e-01  4.7387864207915276e-01 3.7882763996920732e-01 1.6205535145841105e-01  4.7239208695934232e-01 3.6636516995202151e-01 1.6181844740755075e-01  4.7132083451546436e-01 3.5721136271160514e-01 1.6168465618409342e-01  4.7068352993911050e-01 3.5162364130269080e-01 1.6167151973161917e-01  4.7041012459339976e-01 3.4920669303747420e-01 1.6166800387084249e-01  4.7044177660471875e-01 3.4948879543985306e-01 1.6166778728015974e-01  4.7081481541702330e-01 3.5276988742296189e-01 1.6167557936132185e-01  4.7136379100378578e-01 3.5760735010764966e-01 1.6168184865644514e-01  4.7253980553029057e-01 3.6765192964356924e-01 1.6182158435014463e-01  4.7408581658196797e-01 3.8048842468947941e-01 1.6213181515490785e-01  4.7612033940661336e-01 3.9682604726625015e-01 1.6275129154323320e-01  4.7864549104783577e-01 4.1639012153212840e-01 1.6368188256614957e-01  4.8195937194302091e-01 4.4078491878820453e-01 1.6527832838765033e-01  4.8630809558505955e-01 4.7088609113488167e-01 1.6789171235450887e-01  4.9173115834665998e-01 5.0577164088979842e-01 1.7173145098046524e-01  4.9854696968601031e-01 5.4584563721855772e-01 1.7722630738651107e-01  5.0718818160623980e-01 5.9100881658609583e-01 1.8511501647783754e-01  5.1828245878082602e-01 6.4062874157317273e-01 1.9656912348145678e-01  5.3322964561239528e-01 6.9291321764388925e-01 2.1459121996357580e-01  5.5312008382906863e-01 7.4038802745949739e-01 2.4302742757058299e-01  5.7889857709616976e-01 7.6769303634729236e-01 2.8994965059309519e-01  6.0831912202280836e-01 7.5613960950157399e-01 3.6705506562235951e-01  6.3308239296442537e-01 6.9904025065096809e-01 4.7926809064777876e-01  6.4432099361843831e-01 6.0427823288930449e-01 6.1412609914763672e-01  6.4030672620047357e-01 4.9018138245902898e-01 7.3972596750456876e-01  6.2730739879857822e-01 3.8670923275838648e-01 8.2134227607834875e-01  6.1416472775504571e-01 3.1715765033923704e-01 8.5285859665283470e-01  6.0680530689665590e-01 2.8490974435399002e-01 8.5834591251296244e-01  6.0572290578850463e-01 2.7967843807675347e-01 8.5833204925024809e-01  6.0962884812531104e-01 2.9375387954016963e-01 8.5570428419795552e-01  6.1548861926112319e-01 3.1647038544444045e-01 8.5095740056538449e-01  6.2229083939778462e-01 3.4483031162875055e-01 8.4295283939552690e-01  6.2686243509824047e-01 3.6808326073220721e-01 8.3103908686240047e-01  6.3090432394174767e-01 3.8954205092264543e-01 8.2026759456764797e-01  6.3450908778262571e-01 4.1075146234394710e-01 8.0720552511223986e-01  6.3792061706607373e-01 4.3262298338620897e-01 7.9222692230376413e-01  6.4117335414277909e-01 4.5576927185393346e-01 7.7450389171059486e-01  6.4413281194415273e-01 4.7983585369864473e-01 7.5421737334948191e-01  6.4651932756412356e-01 5.0287134250911159e-01 7.3327824085770554e-01  6.4840960723571139e-01 5.2562592433893618e-01 7.1091957428400743e-01  6.4985121848795324e-01 5.4868755791469737e-01 6.8676639899721093e-01  6.5069309009426102e-01 5.7020397706614145e-01 6.6289124269097743e-01  6.5098405851417795e-01 5.9033087434826226e-01 6.3932964837671791e-01  6.5078539142563041e-01 6.0926962049868227e-01 6.1611246677964326e-01  6.5009981348126400e-01 6.2742590704345003e-01 5.9285224510463785e-01  6.4901951761666077e-01 6.4322958884116788e-01 5.7172461376335859e-01  6.4756358562738103e-01 6.5818417246204164e-01 5.5099410192025833e-01  6.4582071779514927e-01 6.7169134571420885e-01 5.3154580855227873e-01  6.4375746916503174e-01 6.8431219446540437e-01 5.1270012618600669e-01  6.4152140015848824e-01 6.9555238689551513e-01 4.9529172198598292e-01  6.3913254166248845e-01 7.0558099801277607e-01 4.7916374270341267e-01  6.3659696367455676e-01 7.1468511168335014e-01 4.6395237632006364e-01  6.3393980258039972e-01 7.2292182666391058e-01 4.4962294115145662e-01  6.3121126873744715e-01 7.3031824966215619e-01 4.3619447228310276e-01  6.2562242125576228e-01 7.4280798211025800e-01 4.1187443356826314e-01  6.2280451799204040e-01 7.4799966575867460e-01 4.0089721783802529e-01  6.1995304696315545e-01 7.5262939337728196e-01 3.9048835846877045e-01  6.1712636462697423e-01 7.5666815159373912e-01 3.8076087867163688e-01  6.1432063781459867e-01 7.6017458617748135e-01 3.7162952835771074e-01  6.1154441980452567e-01 7.6318988692901790e-01 3.6304813856010637e-01  6.0880027029325912e-01 7.6575133532316864e-01 3.5496595467512776e-01  6.0610230562523415e-01 7.6788724833359556e-01 3.4736640232544452e-01  6.0344830498419122e-01 7.6963143550355528e-01 3.4019940206514937e-01  6.0084216946654667e-01 7.7101097587285283e-01 3.3343450288517912e-01  5.9828504915005232e-01 7.7204870476457033e-01 3.2704329754892680e-01  5.9580413445917968e-01 7.7276993337682243e-01 3.2104974125705465e-01  5.9334078428328785e-01 7.7320611789346383e-01 3.1529164137660209e-01  5.9093278201732480e-01 7.7336974727817165e-01 3.0983654891716161e-01  5.8860422085274156e-01 7.7327464181535155e-01 3.0471870922165967e-01  5.8627224335410211e-01 7.7293591614259272e-01 2.9973588292781611e-01  5.8400438685669065e-01 7.7237274497104258e-01 2.9502041080322228e-01  5.8184018023704775e-01 7.7161320337763861e-01 2.9063361736606519e-01  5.7969911901217608e-01 7.7064905259542371e-01 2.8640576099234549e-01  5.7761026278023808e-01 7.6951147118993601e-01 2.8236654377289278e-01  5.7556701061342874e-01 7.6820194410486753e-01 2.7850595056803479e-01  5.7357378578781804e-01 7.6673369542864778e-01 2.7482179838781479e-01  5.7162173802375082e-01 7.6511516912074573e-01 2.7128483270740733e-01  5.6970621729658733e-01 7.6334842923084356e-01 2.6788268651130970e-01  5.6786438315624277e-01 7.6148188381106929e-01 2.6467497185989047e-01  5.6605473758720837e-01 7.5948295170606939e-01 2.6157927494243305e-01  5.6427781191559956e-01 7.5736738307307372e-01 2.5859138847698337e-01  5.6257762498308417e-01 7.5518848132247063e-01 2.5578357466481988e-01  5.6089556705012877e-01 7.5288893973059823e-01 2.5305075854558429e-01  5.5925772434218257e-01 7.5051061887293846e-01 2.5042802466500025e-01  5.5767123445737543e-01 7.4807290025313489e-01 2.4792809218680720e-01  5.5612574940516946e-01 7.4556890868627124e-01 2.4552815590555693e-01  5.5462348184187282e-01 7.4301205364680711e-01 2.4322815377551169e-01  5.5315545254599918e-01 7.4039467402747550e-01 2.4101163412597659e-01  5.5171223099936895e-01 7.3770695696975430e-01 2.3885982835619993e-01  5.5034251750431629e-01 7.3504901165000736e-01 2.3684485322320642e-01  5.4901820025011339e-01 7.3237645182714983e-01 2.3492172401498179e-01  5.4769097736595573e-01 7.2960057967295677e-01 2.3301457377177456e-01  5.4642788296603761e-01 7.2686430145208669e-01 2.3122208884553261e-01  5.4522041929644105e-01 7.2415983934837802e-01 2.2952933743980261e-01  5.4403828449167302e-01 7.2143061053582014e-01 2.2788815918099870e-01  5.4290002545920013e-01 7.1872470462846128e-01 2.2632391231050664e-01  5.4178650943950757e-01 7.1600264674279079e-01 2.2480962791236725e-01  5.4073801897328932e-01 7.1337096768997543e-01 2.2339649027797018e-01  5.3970912178893660e-01 7.1072347123547830e-01 2.2202375124921334e-01  5.3872803876126607e-01 7.0813848159534176e-01 2.2072671182816456e-01  5.3777675528246138e-01 7.0557467636000115e-01 2.1947812294050129e-01  5.3685078485214921e-01 7.0302646614714515e-01 2.1827242098461772e-01  5.3598630974845951e-01 7.0059807255129536e-01 2.1715917220073611e-01  5.3516391078452741e-01 6.9824241377276497e-01 2.1610703317266106e-01  5.3435379960033047e-01 6.9588217515582573e-01 2.1507699475861111e-01  5.3359512476956394e-01 6.9363257023218317e-01 2.1411991886179868e-01  5.3288193870796896e-01 6.9148394553702264e-01 2.1322744671981742e-01  5.3219617978975819e-01 6.8938634600991056e-01 2.1237318978423667e-01  5.3154147734137147e-01 6.8735732010669759e-01 2.1156268400097714e-01  5.3093389404048663e-01 6.8544732628833061e-01 2.1081482905297541e-01  5.4263039617724840e-01 7.1806242270852938e-01 2.2596514030448375e-01  6.4837537659114364e-01 5.2664679001814274e-01 7.0992908805413035e-01  5.2859780791035138e-01 6.7788848674913482e-01 2.0797602758867528e-01  6.3027214885977223e-01 7.3255080590330546e-01 4.3197009901886729e-01  5.3094229519599045e-01 6.8546581593663369e-01 2.1083299483253623e-01  4.8713667815498041e-01 9.3584548029715192e-02 4.3193918650372543e-01  5.3752263128478850e-01 7.0490673083589017e-01 2.1913420947658818e-01  5.5944098374901985e-01 7.5083491845415173e-01 2.5070502645364579e-01  4.8158810428166182e-01 4.3791333844781027e-01 1.6529536738159609e-01  6.4970243835102770e-01 5.5314920280531887e-01 6.8177903235837334e-01  5.5420260377599051e-01 7.4226287638795563e-01 2.4259969767718623e-01  5.7884661701904394e-01 2.0317521767802180e-01 8.3618412164389511e-01  6.1832463053802011e-01 3.3020698187394903e-01 8.4835990716958209e-01  5.6369758362161404e-01 7.5662678268015093e-01 2.5764266119097484e-01  6.3760209368951271e-01 7.1053928786505949e-01 4.7075975233894368e-01  5.2668193411037845e-01 6.7140169692898932e-01 2.0569962268477615e-01  6.2665425254656981e-01 6.8593784927525170e-01 4.9061819585019428e-01  4.9677321762342475e-01 5.3543484255262808e-01 1.7602080143758039e-01  5.2593637716281838e-01 6.6881111424903805e-01 2.0482624899958654e-01  5.7680855922698182e-01 7.6900401030629695e-01 2.8086070983698291e-01  6.1271324717100872e-01 7.6178148389141109e-01 3.6687828046622795e-01  5.9254620070836184e-01 7.7327253547004293e-01 3.1350142081646881e-01  5.2613853044110381e-01 6.6951223158788642e-01 2.0506406476261607e-01  4.7435037756172532e-01 3.8251129343882184e-01 1.6231820062691010e-01  5.8918666142165355e-01 7.7328830899413514e-01 3.0605683398437394e-01  6.0535784061424835e-01 7.6835934335613565e-01 3.4539502483738249e-01  5.2716718936394102e-01 6.7305700022453852e-01 2.0627923071031054e-01  5.3672450283077566e-01 7.0266654318853827e-01 2.1811937561763367e-01  6.4853724094761600e-01 6.4814680755701326e-01 5.6496430340055703e-01  6.1442312364251295e-01 7.1722076811805158e-01 4.2960740189073510e-01  5.4481154313131963e-01 7.2326349412303259e-01 2.2894090658702881e-01  5.3163212671416882e-01 6.8765464187230663e-01 2.1166694731118038e-01  4.7112938397238630e-01 3.5536929533193629e-01 1.6178705956100126e-01  5.7558466171552036e-01 7.6821691727926256e-01 2.7856153380472071e-01  6.1619493553064897e-01 7.5782916087384899e-01 3.7775359976861200e-01  5.2847969635019865e-01 6.7747867875768841e-01 2.0784431732344305e-01  5.5189638096860982e-01 1.3838338089517380e-01 7.6226227596652463e-01  6.3267520338075967e-01 4.0225019156804959e-01 8.1276897840930540e-01  5.3352487423361095e-01 6.9341306391456359e-01 2.1404077302069113e-01  5.4741391796292949e-01 7.2900285987449098e-01 2.3262982525487130e-01  6.4054181220713124e-01 6.9962568801139180e-01 4.8876430266537646e-01  5.1063499241585553e-01 6.0652898321203308e-01 1.8939265113376663e-01  5.5111192586785063e-01 7.3658649267362708e-01 2.3795946202753779e-01  5.2630428379354777e-01 6.7009003002859058e-01 2.0525944613467961e-01  5.4092715016969994e-01 7.1388103656178448e-01 2.2363741076634899e-01  4.7367221192090042e-01 3.7689751588685261e-01 1.6217017106274698e-01  5.6677474261412653e-01 1.8856366899539206e-01 8.1565050474284506e-01  5.6697205570198450e-01 7.6053495552946426e-01 2.6314977384426264e-01  6.4917440012386496e-01 6.3795535972439676e-01 5.7870495274604539e-01  5.3951522928943574e-01 7.1020504549485663e-01 2.2177626466004463e-01  5.3009235167468405e-01 6.8277517861070580e-01 2.0978321205191383e-01  5.6909412392831238e-01 7.6272969518893241e-01 2.6683001230212727e-01  5.4937858945782125e-01 7.3019862035653949e-01 2.4036762862258448e-01  5.8314647632730665e-01 7.7207955675965800e-01 2.9329253877942862e-01  6.5089308864740414e-01 5.9566669201482125e-01 6.3286629609215816e-01  5.3393331185860049e-01 6.9466256388056236e-01 2.1453567718106806e-01  5.5879705321