<?xml version="1.0"?>
<VTKFile type="UnstructuredGrid"  version="0.1"  >
<UnstructuredGrid>
<Piece  NumberOfPoints="4940" NumberOfCells="9650">
<Points>
<DataArray  type="Float64"  NumberOfComponents="3"  format="ascii">500 250 0  0 250 0  250 500 0  250 0 0  256.8885856082646 499.9050767557906 0  263.7719401218049 499.6203791065173 0  270.6448364229772 499.1461232471188 0  277.5020553257866 498.4826693209355 0  284.3383895508592 497.6305211460281 0  291.1486476865662 496.5903258312597 0  297.9276581259182 495.3628732847843 0  304.6702729675493 493.9490956196674 0  311.3713719748657 492.3500664368026 0  318.0258664141369 490.5670000199653 0  324.6287029687753 488.6012504015818 0  331.1748675330201 486.4543103455647 0  337.6593890460416 484.1278102064655 0  344.0773432429536 481.6235166997244 0  350.4238564271474 478.9433315480048 0  356.694109139292 476.0892900492477 0  362.88333985546 473.0635595140469 0  368.9868485575419 469.8684376402048 0  375.0000003153078 466.5063507640667 0  380.9182288257928 462.9798520074548 0  386.7370398729688 459.2916193419558 0  392.4520147244077 455.444453565817 0  398.0588135356345 451.4412761437442 0  403.5531785622926 447.285127045646 0  408.9309374414144 442.9791624087773 0  414.1880064015299 438.5266521049243 0  419.3203932989752 433.9309773069245 0  424.324200661095 429.1956279150535 0  429.1956286596235 424.3241998957182 0  433.9309780058756 419.3203925397119 0  438.5266527445345 414.1880056671062 0  442.9791630130591 408.9309367076756 0  447.2851276060475 403.5531778422888 0  451.4412766621026 398.0588128303826 0  455.4444540361634 392.4520140460735 0  459.2916197786263 386.7370392045948 0  462.9798524073514 380.9182281752347 0  466.5063511234856 374.9999996927758 0  469.8684379657123 368.9868479560565 0  473.0635598144817 362.8833392617846 0  476.0892903190255 356.6941085676214 0  478.9433317963513 350.4238558609745 0  481.6235169154735 344.0773427117675 0  484.12781039012 337.6593885555221 0  486.4543105028062 331.1748670749914 0  488.601250531677 324.6287025528375 0  490.5670001317469 318.0258660188321 0  492.3500665291326 311.3713716102628 0  493.949095695951 304.6702726271575 0  495.3628733416623 297.9276578347343 0  496.5903258712341 291.1486474470129 0  497.6305211749058 284.3383893426084 0  498.4826693388848 277.502055163614 0  499.1461232580606 270.6448362909296 0  499.6203791109319 263.7719400417897 0  499.9050767571306 256.8885855596534 0  499.9050767559877 243.1114143988867 0  499.6203791069493 236.2280598860241 0  499.1461232485393 229.3551635941651 0  498.4826693235677 222.4979446979962 0  497.6305211491849 215.6616104719064 0  496.5903258357701 208.8513523404629 0  495.3628732906988 202.0723419043604 0  493.9490956264813 195.3297270628552 0  492.3500664487791 188.6286280724281 0  490.5670000344809 181.9741336371959 0  488.6012504175981 175.3712970824318 0  486.4543103623226 168.8251325157939 0  484.1278102222298 162.3406109960628 0  481.6235167152198 155.9226567951971 0  478.9433315621651 149.5761436051346 0  476.0892900516498 143.3058908657982 0  473.063559513628 137.1166601437124 0  469.8684376406648 131.0131514433083 0  466.5063507675389 124.9999996907064 0  462.9798520124137 119.0817711822745 0  459.2916193464549 113.2629601339176 0  455.4444535642773 107.5479852733717 0  451.4412761528674 101.9411864767781 0  447.2851270583545 96.44682145403524 0  442.9791624165781 91.06906256805769 0  438.5266521117469 85.81199360630404 0  433.9309773156125 80.67960671046254 0  429.1956279150353 75.67579933888632 0  424.3241998888952 70.80437133373906 0  419.3203925223282 66.06902197812161 0  414.1880056411937 61.47334723289828 0  408.9309366751728 57.0208369601728 0  403.5531778009394 52.71487236176898 0  398.058812796452 48.55872331295853 0  392.4520140187753 44.55554594490843 0  386.7370391799677 40.70838020528396 0  380.9182281475119 37.02014757560744 0  374.9999996718656 33.49364886444181 0  368.9868479340393 30.13156202237255 0  362.8833392380029 26.93644017348339 0  356.6941085456942 23.91070967062674 0  350.4238558420009 21.0566681953261 0  344.0773426899492 18.37648307566465 0  337.6593885328982 15.87218960140942 0  331.1748670549786 13.54568949032341 0  324.6287025315056 11.39874946165088 0  318.0258660010876 9.432999863235466 0  311.3713716017894 7.649933468721599 0  304.6702726190621 6.050904302234756 0  297.9276578269805 4.637126656823085 0  291.148647441857 3.409674127905504 0  284.3383893425031 2.369478825079682 0  277.502055159398 1.517330660648639 0  270.6448362875833 0.853876741662134 0  263.7719400401456 0.3796208889774277 0  256.8885855592052 0.09492324285704967 0  243.1114143979462 0.09492324403817065 0  236.2280598850882 0.3796208931023841 0  229.3551635938215 0.8538767514891958 0  222.4979446968584 1.517330676558146 0  215.6616104703111 2.369478851036291 0  208.8513523382973 3.409674164591252 0  202.0723419066374 4.637126708856528 0  195.3297270659513 6.050904372824903 0  188.628628074828 7.649933550613184 0  181.9741336377093 9.432999965373938 0  175.3712970793675 11.39874958336037 0  168.8251325057572 13.54568964112298 0  162.340610986655 15.87218978129263 0  155.9226567874317 18.37648328793418 0  149.576143602509 21.05666843898663 0  143.3058908718157 23.91070994551046 0  137.1166601505524 26.93644048291054 0  131.0131514451933 30.13156235831508 0  124.9999996848412 33.49364923584736 0  119.0817711715717 37.0201479941652 0  113.2629601211624 40.70838066187849 0  107.5479852622251 44.55554644345162 0  101.9411864693332 48.55872385260452 0  96.44682143286516 52.71487295812284 0  91.06906254351222 57.02083760363669 0  85.81199358272519 61.4733479087879 0  80.67960667988106 66.06902271253972 0  75.67579930062769 70.80437212218331 0  70.80437129287643 75.67580015310926 0  66.06902193673014 80.67960752263491 0  61.47334718684866 85.81199441168215 0  57.02083692524275 91.0690633672404 0  52.71487232786438 96.44682224262129 0  48.55872328070024 101.941187247437 0  44.55554591578033 107.5479860232332 0  40.7083801742321 113.2629608675606 0  37.02014754791168 119.0817718975441 0  33.49364883372994 125.000000381329 0  30.13156199866361 131.0131521097709 0  26.9364401549829 137.1166607985551 0  23.91070965524918 143.3058914868915 0  21.05666818346614 149.576144185037 0  18.37648306853811 155.9226573275967 0  15.8721895918909 162.3406114925245 0  13.54568948170046 168.8251329701392 0  11.39874945301878 175.3712974960928 0  9.432999857087736 181.9741340206533 0  7.649933466342702 188.6286284076045 0  6.050904301250966 195.3297273853278 0  4.637126656808988 202.0723421730917 0  3.409674127767772 208.8513525589684 0  2.369478824521138 215.6616106615248 0  1.517330660909465 222.4979448382452 0  0.8538767414496533 229.355163714981 0  0.3796208887135322 236.2280599646376 0  0.09492324266324204 243.1114144478261 0  0.0949232442452228 256.8885856095658 0  0.3796208935834784 263.7719401236316 0  0.8538767530323526 270.6448364248016 0  1.517330679476544 277.5020553295092 0  2.369478854618649 284.3383895555228 0  3.409674170191892 291.1486476952655 0  4.6371267162381 297.9276581311522 0  6.050904381420935 304.6702729724059 0  7.649933562385399 311.3713719716595 0  9.43299997979841 318.0258664133013 0  11.3987495994252 324.6287029719946 0  13.54568965885832 331.174867545904 0  15.87218979367188 337.6593890464085 0  18.37648329843151 344.0773432384132 0  21.05666844777872 350.423856417535 0  23.91070995156048 356.6941091410045 0  26.93644048988043 362.8833398632205 0  30.13156235982007 368.9868485575877 0  33.49364924138357 375.0000003247478 0  37.0201480006036 380.9182288389023 0  40.70838066758398 386.7370398875706 0  44.55554644477201 392.4520147396792 0  48.55872386086904 398.0588135419111 0  52.71487295981296 403.5531785693063 0  57.02083760525949 408.9309374584583 0  61.47334790862246 414.1880064170849 0  66.06902271205095 419.320393319588 0  70.80437211216579 424.3242006890749 0  75.67580013809859 429.195628692521 0  80.6796075127923 433.930978054209 0  85.81199439754931 438.5266528008431 0  91.06906334717917 442.9791630582355 0  96.44682221438322 447.2851276501571 0  101.9411872243843 451.441276702356 0  107.5479859945825 455.4444540643537 0  113.2629608446994 459.2916198108319 0  119.0817718768376 462.9798524393601 0  125.0000003647644 466.5063511567065 0  131.0131521012763 469.8684379967393 0  137.1166607840049 473.0635598376539 0  143.3058914748804 476.0892903390826 0  149.5761441732679 478.9433318113714 0  155.9226573130112 481.6235169255377 0  162.3406114779862 484.1278104026658 0  168.8251329570439 486.4543105138039 0  175.3712974805475 488.601250542119 0  181.9741340135204 490.5670001408953 0  188.6286284005059 492.3500665318597 0  195.3297273788229 493.9490956972913 0  202.0723421640089 495.3628733414168 0  208.8513525529672 496.5903258712308 0  215.6616106544547 497.6305211744985 0  222.4979448327038 498.4826693384772 0  229.3551637102845 499.1461232581612 0  236.2280599621369 499.6203791111485 0  243.1114144470173 499.9050767573145 0  155.2373389820306 474.8197567317462 0  25.36256300907667 153.9152755065208 0  432.3709625126712 412.6214396304305 0  6.013151705810699 246.637913163471 0  246.6379131630491 493.986848294322 0  338.6995838441862 22.68244767887072 0  477.3175523131281 338.6995838660569 0  493.9868482700757 246.6379131399102 0  246.6201155078769 6.218451882810491 0  417.6179310263282 72.7156044707053 0  102.2232990934413 445.0100869616822 0  63.66330858966404 92.20354579482142 0  391.3105220491464 50.73522820883105 0  72.79295043967942 418.0702734974704 0  448.290574428537 108.25674339002 0  402.4604651193511 440.7462829841712 0  97.55317348421397 59.11376320116034 0  136.7376477664901 33.58246472647134 0  363.3288394375288 465.6947312928271 0  44.0678766556007 381.0860953771871 0  469.6905266180034 142.3890690100806 0  22.68244791668644 338.6995843487432 0  338.699584349159 477.317552078365 0  173.389488083762 18.6681884918202 0  483.4809734778481 179.7121987795732 0  13.50237455842738 306.4709525540879 0  305.9825168523021 487.24416992
[...]
<PointData  Vectors="f_12"> 
<DataArray  type="Float64"  Name="f_12"  NumberOfComponents="3" format="ascii">4.9096390025033015e-01 3.1632014239763917e-01 3.6793325956269518e-01  5.1132799844432519e-01 4.4184917823176134e-01 3.8893173617721721e-01  4.8639672226079611e-01 2.6759603117022618e-01 3.7244363482967030e-01  4.8506774780392264e-01 2.2051137848871755e-01 3.9252757979321257e-01  4.8634616689432064e-01 2.6688510882100513e-01 3.7258496717675221e-01  4.8630045951924389e-01 2.6623560468996738e-01 3.7271643021071194e-01  4.8625732958481044e-01 2.6561673502870042e-01 3.7284377558668830e-01  4.8621825839155020e-01 2.6505105636242982e-01 3.7296189660445428e-01  4.8618246505010065e-01 2.6452818232260655e-01 3.7307267462372751e-01  4.8614992019236025e-01 2.6404898514631187e-01 3.7317546720459116e-01  4.8612051205173357e-01 2.6361271435257583e-01 3.7327015235653543e-01  4.8609401576154537e-01 2.6321686128060290e-01 3.7335699944204909e-01  4.8607052428715780e-01 2.6286363151775727e-01 3.7343524911815218e-01  4.8605010093172391e-01 2.6255469357722544e-01 3.7350430945479457e-01  4.8603385018918743e-01 2.6230756171388159e-01 3.7355998409993835e-01  4.8601788675594321e-01 2.6206381895996161e-01 3.7361523655413115e-01  4.8600816624292648e-01 2.6191453711089874e-01 3.7364936454544712e-01  4.8599918497667000e-01 2.6177624492897172e-01 3.7368112027255473e-01  4.8599351173391619e-01 2.6168836963827014e-01 3.7370149416425269e-01  4.8599045458551265e-01 2.6164056675263370e-01 3.7371276235566464e-01  4.8598981752342529e-01 2.6162998312154062e-01 3.7371551602053854e-01  4.8599323578756831e-01 2.6168153656137505e-01 3.7370414142636493e-01  4.8599970523450653e-01 2.6177980813144103e-01 3.7368215594320953e-01  4.8600772759987509e-01 2.6190174458951354e-01 3.7365483148014350e-01  4.8601890875882131e-01 2.6207160136477153e-01 3.7361676895804707e-01  4.8603398775700746e-01 2.6230005685362900e-01 3.7356574075167909e-01  4.8605322556778968e-01 2.6259054937763565e-01 3.7350114083854064e-01  4.8607414790535580e-01 2.6290501371648872e-01 3.7343169332890813e-01  4.8609833589692475e-01 2.6326660042397448e-01 3.7335247072804517e-01  4.8612758526404898e-01 2.6370118902018791e-01 3.7325810244234331e-01  4.8615931817390978e-01 2.6416928893976338e-01 3.7315759020672523e-01  4.8619531613766481e-01 2.6469606592311251e-01 3.7304587347319196e-01  4.8623542987179530e-01 2.6527813496098362e-01 3.7292409070295912e-01  4.8627894235779195e-01 2.6590372918535349e-01 3.7279515277350544e-01  4.8632852532997206e-01 2.6660942287941303e-01 3.7265212065359321e-01  4.8638239095218949e-01 2.6736779684725875e-01 3.7250127374095343e-01  4.8643982853349998e-01 2.6816745274829512e-01 3.7234532863225267e-01  4.8650396336377039e-01 2.6904953179563090e-01 3.7217707922083909e-01  4.8657530339114685e-01 2.7001791939639974e-01 3.7199689045882545e-01  4.8665145227507456e-01 2.7103779138133488e-01 3.7181204835548626e-01  4.8673255814558292e-01 2.7210898854578647e-01 3.7162334953913323e-01  4.8682194619779595e-01 2.7327237519838554e-01 3.7142468381279559e-01  4.8691999933256347e-01 2.7452955754475944e-01 3.7121697931514575e-01  4.8702512587930075e-01 2.7585575166132043e-01 3.7100601574085096e-01  4.8713958736423607e-01 2.7727607274879396e-01 3.7078901178427887e-01  4.8726332718261117e-01 2.7878597493132151e-01 3.7056809696761367e-01  4.8739675115468356e-01 2.8038584501161046e-01 3.7034495008577212e-01  4.8754026915797666e-01 2.8207607088959280e-01 3.7012133767533489e-01  4.8769829473014914e-01 2.8390253454000747e-01 3.6989340447230407e-01  4.8786767582488849e-01 2.8582416788394366e-01 3.6966817375222838e-01  4.8805089770457810e-01 2.8786156194276830e-01 3.6944629105126636e-01  4.8824881560173367e-01 2.9002032150993495e-01 3.6922853895077129e-01  4.8846248083723381e-01 2.9230309494993828e-01 3.6901840762637961e-01  4.8869546639447464e-01 2.9474138245807430e-01 3.6881556619119910e-01  4.8894684033769037e-01 2.9731682288307576e-01 3.6862509501429253e-01  4.8921767546045569e-01 3.0003176041436957e-01 3.6845053976249775e-01  4.8951219483175928e-01 3.0292023618111558e-01 3.6829287587261289e-01  4.8983061019379553e-01 3.0597328982306721e-01 3.6815762141285219e-01  4.9017376470320440e-01 3.0919172236644404e-01 3.6804680808824131e-01  4.9053906591173968e-01 3.1254554549595914e-01 3.6796542056115111e-01  4.9139511757330379e-01 3.2009415413212783e-01 3.6792369682579557e-01  4.9186921548717188e-01 3.2412831788297763e-01 3.6797024597580774e-01  4.9238162508807581e-01 3.2837804332397702e-01 3.6807237694098038e-01  4.9294208007591545e-01 3.3291152041676070e-01 3.6823468431138401e-01  4.9354886391540514e-01 3.3768673004229205e-01 3.6847187751854327e-01  4.9420530051926775e-01 3.4272011796424723e-01 3.6878448838585409e-01  4.9491900204592260e-01 3.4803559173137200e-01 3.6919342604806810e-01  4.9569339857045447e-01 3.5364159490143759e-01 3.6970361316122785e-01  4.9653203924393408e-01 3.5953434523847344e-01 3.7032888328915708e-01  4.9743986103292692e-01 3.6571886279234489e-01 3.7108320178984289e-01  4.9843059704977377e-01 3.7225568227616240e-01 3.7198644880077270e-01  4.9949863684891621e-01 3.7906894438575039e-01 3.7304870266096946e-01  5.0065824360030742e-01 3.8621493410033025e-01 3.7429118886749291e-01  5.0191854777951495e-01 3.9369913061174622e-01 3.7573997951204940e-01  5.0328439703930605e-01 4.0150069394624599e-01 3.7741271247335595e-01  5.0476188939387434e-01 4.0959563678454353e-01 3.7933468673243620e-01  5.0635877288329201e-01 4.1796825400985416e-01 3.8152797558357326e-01  5.0808395093184111e-01 4.2659234458867701e-01 3.8402522489474911e-01  5.0994746914541922e-01 4.3544234300485612e-01 3.8685870319576493e-01  5.1195264846232791e-01 4.4445211281688407e-01 3.9005181331451677e-01  5.1409056116371865e-01 4.5350141331946509e-01 3.9360855469080647e-01  5.1639544600639320e-01 4.6261386685234251e-01 3.9762140916877081e-01  5.1884685317738144e-01 4.7161861557389378e-01 4.0207442495839751e-01  5.2144134865850345e-01 4.8040447346164639e-01 4.0698700201774274e-01  5.2417216993285232e-01 4.8883923750472852e-01 4.1237851686448307e-01  5.2702011835991813e-01 4.9677045831986139e-01 4.1824147429484509e-01  5.2996242147306405e-01 5.0405645547598088e-01 4.2455777722549742e-01  5.3296774147334958e-01 5.1055932693305972e-01 4.3129244839211350e-01  5.3600285611164156e-01 5.1618132760937652e-01 4.3838533966305460e-01  5.3902493004595253e-01 5.2082617403409104e-01 4.4577007449292450e-01  5.4198733265575705e-01 5.2445967508786850e-01 4.5333518466546335e-01  5.4484412859611131e-01 5.2709141984683194e-01 4.6096285741830278e-01  5.4754096033839539e-01 5.2876370702231823e-01 4.6850045807168200e-01  5.5006205060089419e-01 5.2959130468587479e-01 4.7586945993378482e-01  5.5236602531613510e-01 5.2969715939230178e-01 4.8291229058287732e-01  5.5439423315235437e-01 5.2924043113354191e-01 4.8939102482607660e-01  5.5614736449678692e-01 5.2840300505639848e-01 4.9522539551921591e-01  5.5761860966731680e-01 5.2734847794729189e-01 5.0032078120197332e-01  5.5873951458105620e-01 5.2630097539798393e-01 5.0434934229052031e-01  5.5950704294812970e-01 5.2541136018482371e-01 5.0722018485970755e-01  5.5993561738799735e-01 5.2476391338381745e-01 5.0893521475363335e-01  5.5986459752743079e-01 5.2461799628372741e-01 5.0885343162855590e-01  5.5927031882674938e-01 5.2495737986331903e-01 5.0691793089876347e-01  5.5798350953530551e-01 5.2577118224425690e-01 5.0262582079080720e-01  5.5584031547806412e-01 5.2672179830358756e-01 4.9567430292846082e-01  5.5258606439207381e-01 5.2710871079253341e-01 4.8565287607728630e-01  5.4799497576550327e-01 5.2557630721527659e-01 4.7250128006015796e-01  5.4187427914656616e-01 5.2000981657496315e-01 4.5644432773568877e-01  5.3409073898686354e-01 5.0736101023864422e-01 4.3806377300422422e-01  5.2491231841878627e-01 4.8457499268542720e-01 4.1869184557288530e-01  5.1503446023263533e-01 4.5013970451855845e-01 4.0049519904632219e-01  5.0554684754695944e-01 4.0584401640725642e-01 3.8600653057147055e-01  4.9746168848254357e-01 3.5739140848530132e-01 3.7687861995202782e-01  4.9143836292719340e-01 3.1122694528327249e-01 3.7400419743924790e-01  4.8762193556776862e-01 2.7243737484398711e-01 3.7664755909577458e-01  4.8567386191057527e-01 2.4235755579674143e-01 3.8349232740270955e-01  4.8532563198273027e-01 2.0578335599891565e-01 4.0210013483610640e-01  4.8589678666960234e-01 1.9405009847426269e-01 4.1160770277224823e-01  4.8668329452829656e-01 1.8737467661568544e-01 4.1942915230653899e-01  4.8739985015648124e-01 1.8267696305609582e-01 4.2578500486633042e-01  4.8798636445778160e-01 1.7958304250528340e-01 4.3055918895997608e-01  4.8839566431075182e-01 1.7773239992431572e-01 4.3371608703210435e-01  4.8861948742803496e-01 1.7680430851656120e-01 4.3539433939392169e-01  4.8865095445410517e-01 1.7668001171145928e-01 4.3562702941547266e-01  4.8849370509148471e-01 1.7732229488362342e-01 4.3445360081868967e-01  4.8817070639266930e-01 1.7872615858196400e-01 4.3199510749946235e-01  4.8765825538493196e-01 1.8122632283378165e-01 4.2793735457817095e-01  4.8701872273006569e-01 1.8500594808992538e-01 4.2250004546849479e-01  4.8630838877018895e-01 1.9048127078302457e-01 4.1574231239306425e-01  4.8562881468090319e-01 1.9820396373155588e-01 4.0788468049530735e-01  4.8513050411706193e-01 2.0918188603049664e-01 3.9915713179550033e-01  4.8505330472661112e-01 2.2447748176054180e-01 3.9021586299678901e-01  4.8571771979972628e-01 2.4508866084823672e-01 3.8214903516556825e-01  4.8744539297235639e-01 2.7180349980192109e-01 3.7604764551051095e-01  4.9053793576276788e-01 3.0474021838680304e-01 3.7308011570810795e-01  4.9512521430018624e-01 3.4259735010362330e-01 3.7406011148047258e-01  5.0113657879646933e-01 3.8270938311502628e-01 3.7931901860532541e-01  5.0808685543770649e-01 4.2091836037202113e-01 3.8816616364388046e-01  5.1532103495842818e-01 4.5354049324558832e-01 3.9938485324959666e-01  5.2227272085169307e-01 4.7895580544736305e-01 4.1173495426434109e-01  5.2852945378393634e-01 4.9728892946216507e-01 4.2403888808351520e-01  5.3383962024884679e-01 5.0962437493497315e-01 4.3538520108532369e-01  5.3816200812478732e-01 5.1753188726809429e-01 4.4527265168871838e-01  5.4154158751217285e-01 5.2238949742797747e-01 4.5344628546362176e-01  5.4410945448862824e-01 5.2530246327935626e-01 4.5993402880680884e-01  5.4598813140035762e-01 5.2702017657759170e-01 4.6483185177141106e-01  5.4729629332495322e-01 5.2802645733186193e-01 4.6830695808823009e-01  5.4811398679878676e-01 5.2861584497484770e-01 4.7047484255891064e-01  5.4852967650987450e-01 5.2895693745099581e-01 4.7153384827973277e-01  5.4858623924305050e-01 5.2912351150806125e-01 4.7158068464510811e-01  5.4838126692856148e-01 5.2915685047856087e-01 4.7089691900147007e-01  5.4789880766418608e-01 5.2904643316075795e-01 4.6943542834568097e-01  5.4716555823511648e-01 5.2876238506470175e-01 4.6728917796992364e-01  5.4619583749816414e-01 5.2825645205920857e-01 4.6452238440495031e-01  5.4500247888492748e-01 5.2746898705543355e-01 4.6119618741921020e-01  5.4360240022917017e-01 5.2633034198051121e-01 4.5738974796878107e-01  5.4203852942793063e-01 5.2480008272434653e-01 4.5324668886492014e-01  5.4032305279219250e-01 5.2281734934887925e-01 4.4882054804819449e-01  5.3845283330711802e-01 5.2029764037067883e-01 4.4413064306000816e-01  5.3648718883481905e-01 5.1725873366121689e-01 4.3933897493964091e-01  5.3444719865542201e-01 5.1367797884855726e-01 4.3451114882602770e-01  5.3235115115873655e-01 5.0955217460743341e-01 4.2969438169979651e-01  5.3021285307379307e-01 5.0487411403337246e-01 4.2492621405925990e-01  5.2809706816096924e-01 4.9976564489699665e-01 4.2035179116262705e-01  5.2598308116277404e-01 4.9419153876235222e-01 4.1592015869850962e-01  5.2391534400578421e-01 4.8828419335594159e-01 4.1170556184717960e-01  5.2188523447486490e-01 4.8201878975967183e-01 4.0770584948062716e-01  5.1992515224070013e-01 4.7554650430513495e-01 4.0395188597091652e-01  5.1804557069161672e-01 4.6892771520102200e-01 4.0046692378744703e-01  5.1624256902847698e-01 4.6219397890796987e-01 3.9722615770254399e-01  5.1451940297790599e-01 4.5539716141346098e-01 3.9422733392886089e-01  5.1288240383976458e-01 4.4860738420067842e-01 3.9146674312560853e-01  5.0985665991060469e-01 4.3516555767910980e-01 3.8661163973211826e-01  5.0846896189072355e-01 4.2859719278891356e-01 3.8449775762966121e-01  5.0715524346553509e-01 4.2213323163845390e-01 3.8256955893587119e-01  5.0591800556314481e-01 4.1582137235864230e-01 3.8081843164714635e-01  5.0475247123454503e-01 4.0966753480376322e-01 3.7923245151293627e-01  5.0365447088809667e-01 4.0367887849507494e-01 3.7779782896538777e-01  5.0262087009963119e-01 3.9786408503053816e-01 3.7650430983595140e-01  5.0164814199264141e-01 3.9222852361797694e-01 3.7534020225229170e-01  5.0073253118794514e-01 3.8677217639542472e-01 3.7429578587392076e-01  4.9987082565043961e-01 3.8149651764125686e-01 3.7336124699386158e-01  4.9906030350901703e-01 3.7640247441990543e-01 3.7252967146069921e-01  4.9829831467029123e-01 3.7149392173033807e-01 3.7179049486314247e-01  4.9757867686002111e-01 3.6674376144590010e-01 3.7113547986791595e-01  4.9689981461875621e-01 3.6215674899115718e-01 3.7055809320570599e-01  4.9626338010611026e-01 3.5775772099869230e-01 3.7005514152780694e-01  4.9565871324408456e-01 3.5348326215223780e-01 3.6961556745035423e-01  4.9508882053934983e-01 3.4936659878788306e-01 3.6923719929699378e-01  4.9455597889099651e-01 3.4543609934503577e-01 3.6891654118379491e-01  4.9405171544575011e-01 3.4163689845478051e-01 3.6864781232692811e-01  4.9357519746786688e-01 3.3797546721063126e-01 3.6842361807228646e-01  4.9312520802144016e-01 3.3444708638101694e-01 3.6824338409742763e-01  4.9270068016151791e-01 3.3105251613804998e-01 3.6810257251191103e-01  4.9229889825329853e-01 3.2777764581719881e-01 3.6799725762434443e-01  4.9191876972133486e-01 3.2461922854224184e-01 3.6792522889582646e-01  4.9156101793259632e-01 3.2159075229748552e-01 3.6788331761673460e-01  4.9122262309466291e-01 3.1867220489832443e-01 3.6786901154974022e-01  4.9090104883683378e-01 3.1584800840011568e-01 3.6787956523875875e-01  4.9059952619429931e-01 3.1315123634996456e-01 3.6791270771571838e-01  4.9031270748234346e-01 3.1053916831341560e-01 3.6796708279411938e-01  4.9004138798101560e-01 3.0802450621832178e-01 3.6803977388602543e-01  4.8978510719092438e-01 3.0560703095583575e-01 3.6812932188513481e-01  4.8954263846929424e-01 3.0327957195958177e-01 3.6823405571713974e-01  4.8931329770572768e-01 3.0103985681262424e-01 3.6835230817510484e-01  4.8909590694857358e-01 2.9888006877961626e-01 3.6848297424879006e-01  4.8888919954165899e-01 2.9679111163329513e-01 3.6862518106054160e-01  4.8869532729549764e-01 2.9479888644772895e-01 3.6877538433600288e-01  4.8851250203308094e-01 2.9288857014127989e-01 3.6893330196702939e-01  4.8833704899119790e-01 2.9102466585009029e-01 3.6910070936935740e-01  4.8817233597106119e-01 2.8924608443370436e-01 3.6927279909802457e-01  4.8801756267129437e-01 2.8754732147285078e-01 3.6944889220236166e-01  4.8787049289192308e-01 2.8590719015640131e-01 3.6962981952032364e-01  4.8773168581298759e-01 2.8433480789047422e-01 3.6981338069502778e-01  4.8759996962356150e-01 2.8281882796344493e-01 3.7000027909343230e-01  4.8747673289495996e-01 2.8137901235109719e-01 3.7018641385039602e-01  4.8735966699377281e-01 2.7998989251233602e-01 3.7037470055097088e-01  4.8724959805839357e-01 2.7866431681475884e-01 3.7056209114363703e-01  4.8714545533954368e-01 2.7739161496281339e-01 3.7074927096140575e-01  4.8704669050239147e-01 2.7616715840108202e-01 3.7093616685480468e-01  4.8695486579059444e-01 2.7501201600146830e-01 3.7111898842704072e-01  4.8686878278487056e-01 2.7391414612440551e-01 3.7129838952179400e-01  4.8678674430948038e-01 2.7285368603439758e-01 3.7147704140952514e-01  4.8671043206401615e-01 2.7185405118027411e-01 3.7165035324086437e-01  4.8663932126497933e-01 2.7091036952185316e-01 3.7181848370850085e-01  4.8657246688318601e-01 2.7001220071535453e-01 3.7198247912683219e-01  4.8650972650075630e-01 2.6915912807928150e-01 3.7214194988041843e-01  4.8645177014245178e-01 2.6836186311094540e-01 3.7229426643366420e-01  4.8767782338084759e-01 2.8371768437315226e-01 3.6988824713155577e-01  5.3983750306527201e-01 5.2219142224390680e-01 4.4759705197776822e-01  4.8631867766846093e-01 2.6647060218188140e-01 3.7267968833175247e-01  5.1215606644060196e-01 4.4548378041479736e-01 3.9027357399583801e-01  4.8643655240543959e-01 2.6815128873457411e-01 3.7233486558296619e-01  5.5939141429325367e-01 5.2440216481299673e-01 5.0770059665682310e-01  4.8748786606914457e-01 2.8146219440370207e-01 3.7020112178648468e-01  4.9120131881698820e-01 3.1841864993674546e-01 3.6791758331353253e-01  4.8507665293646435e-01 2.1265064989700133e-01 3.9696298360540261e-01  5.3766449320176446e-01 5.1882925406878078e-01 4.4241803423283388e-01  4.8922608829217745e-01 3.0017743288116572e-01 3.6840263773794552e-01  5.4837993379544381e-01 5.2850528013679543e-01 4.7141227220957893e-01  5.5164944940575589e-01 5.2971300242211516e-01 4.8070643117895040e-01  4.9075874887078647e-01 3.1458102326887638e-01 3.6789241282169050e-01  5.1772783070499195e-01 4.6758955822391940e-01 4.0002329793133712e-01  4.8609644342879277e-01 2.6323916325830704e-01 3.7335806095597984e-01  5.2647713769614235e-01 4.9118816365922330e-01 4.2027503851836889e-01  4.8660344154797008e-01 2.5992644522725050e-01 3.7841182174602628e-01  4.8600348145489802e-01 2.6183970794846861e-01 3.7366764971779565e-01  4.9334310105880508e-01 3.3616301554323091e-01 3.6832738440832719e-01  5.0564212810310094e-01 4.1425320267599303e-01 3.8053162102733629e-01  4.9726859763208014e-01 3.6466359367684803e-01 3.7086631792092950e-01  4.8601425726149994e-01 2.6200758934472940e-01 3.7362823903402076e-01  4.8720909686078717e-01 1.8374635191189553e-01 4.2419233620390073e-01  4.9808391127784096e-01 3.6999088906308164e-01 3.7166248529169627e-01  5.0123716296145104e-01 3.8979557485599470e-01 3.7486624922025963e-01  4.8609671348727546e-01 2.6325727146156108e-01 3.7334803616057716e-01  4.8701252545723672e-01 2.7573971925303964e-01 3.7100284115714399e-01  5.2711722716665499e-01 4.9723075072581574e-01 4.1828566665154782e-01  5.3081271233429672e-01 4.9950476898566015e-01 4.3136151773730025e-01  4.8860161670361962e-01 2.9376564965008534e-01 3.6889383117943048e-01  4.8669098426178370e-01 2.7156189847505713e-01 3.7171888116849017e-01  4.8849646958501386e-01 1.7728756204642854e-01 4.3448427306074222e-01  4.9464716647528700e-01 3.4602662761622599e-01 3.6903124382308933e-01  5.0537854014057670e-01 4.1299643529311458e-01 3.8007784568399650e-01  4.8621189683139382e-01 2.6495844554367037e-01 3.7298134307672620e-01  5.5842825378320005e-01 5.2657456868964014e-01 5.0324699091983671e-01  5.4693581765646115e-01 5.2864548468815420e-01 4.6663381581852270e-01  4.8668593282142264e-01 2.7153044357891931e-01 3.7170738410699000e-01  4.8827394128034285e-01 2.9034757556372459e-01 3.6916430804909578e-01  5.1886599280274515e-01 4.7186286723248527e-01 4.0197751687313282e-01  4.9510297043475393e-01 3.4019269409102315e-01 3.7545393706582775e-01  4.8966243933188758e-01 3.0436803125539530e-01 3.6822538019939871e-01  4.8604271689238027e-01 2.6243352374237411e-01 3.7353529393260088e-01  4.8798236747446438e-01 2.8710447893990404e-01 3.6952653048909723e-01  4.8707114266982066e-01 1.8470783574380864e-01 4.2293970835677414e-01  5.5153324450164565e-01 5.2637749726366134e-01 4.8300356174871123e-01  4.9270801054590435e-01 3.3103368932651289e-01 3.6815998743681899e-01  5.2871423377623683e-01 5.0106242001329981e-01 4.2185413797079441e-01  4.8731573028877090e-01 2.7946292761969921e-01 3.7044824119158898e-01  4.8648985452197785e-01 2.6885749306637297e-01 3.7221284364748025e-01  4.9174406146623884e-01 3.2314736569719088e-01 3.6790140042364589e-01  5.0558437897818354e-01 4.0737326719322597e-01 3.8510100256286200e-01  4.9481115074455329e-01 3.4732879678843803e-01 3.6906596430360744e-01  5.3350543275600393e-01 5.1186517736374071e-01 4.3233716377691178e-01  4.8698892096466478e-01 2.7540186554117352e-01 3.7107699350604040e-01  4.8993179786