<?xml version="1.0"?>
<VTKFile type="UnstructuredGrid"  version="0.1"  >
<UnstructuredGrid>
<Piece  NumberOfPoints="4940" NumberOfCells="9650">
<Points>
<DataArray  type="Float64"  NumberOfComponents="3"  format="ascii">500 250 0  0 250 0  250 500 0  250 0 0  256.8885856082646 499.9050767557906 0  263.7719401218049 499.6203791065173 0  270.6448364229772 499.1461232471188 0  277.5020553257866 498.4826693209355 0  284.3383895508592 497.6305211460281 0  291.1486476865662 496.5903258312597 0  297.9276581259182 495.3628732847843 0  304.6702729675493 493.9490956196674 0  311.3713719748657 492.3500664368026 0  318.0258664141369 490.5670000199653 0  324.6287029687753 488.6012504015818 0  331.1748675330201 486.4543103455647 0  337.6593890460416 484.1278102064655 0  344.0773432429536 481.6235166997244 0  350.4238564271474 478.9433315480048 0  356.694109139292 476.0892900492477 0  362.88333985546 473.0635595140469 0  368.9868485575419 469.8684376402048 0  375.0000003153078 466.5063507640667 0  380.9182288257928 462.9798520074548 0  386.7370398729688 459.2916193419558 0  392.4520147244077 455.444453565817 0  398.0588135356345 451.4412761437442 0  403.5531785622926 447.285127045646 0  408.9309374414144 442.9791624087773 0  414.1880064015299 438.5266521049243 0  419.3203932989752 433.9309773069245 0  424.324200661095 429.1956279150535 0  429.1956286596235 424.3241998957182 0  433.9309780058756 419.3203925397119 0  438.5266527445345 414.1880056671062 0  442.9791630130591 408.9309367076756 0  447.2851276060475 403.5531778422888 0  451.4412766621026 398.0588128303826 0  455.4444540361634 392.4520140460735 0  459.2916197786263 386.7370392045948 0  462.9798524073514 380.9182281752347 0  466.5063511234856 374.9999996927758 0  469.8684379657123 368.9868479560565 0  473.0635598144817 362.8833392617846 0  476.0892903190255 356.6941085676214 0  478.9433317963513 350.4238558609745 0  481.6235169154735 344.0773427117675 0  484.12781039012 337.6593885555221 0  486.4543105028062 331.1748670749914 0  488.601250531677 324.6287025528375 0  490.5670001317469 318.0258660188321 0  492.3500665291326 311.3713716102628 0  493.949095695951 304.6702726271575 0  495.3628733416623 297.9276578347343 0  496.5903258712341 291.1486474470129 0  497.6305211749058 284.3383893426084 0  498.4826693388848 277.502055163614 0  499.1461232580606 270.6448362909296 0  499.6203791109319 263.7719400417897 0  499.9050767571306 256.8885855596534 0  499.9050767559877 243.1114143988867 0  499.6203791069493 236.2280598860241 0  499.1461232485393 229.3551635941651 0  498.4826693235677 222.4979446979962 0  497.6305211491849 215.6616104719064 0  496.5903258357701 208.8513523404629 0  495.3628732906988 202.0723419043604 0  493.9490956264813 195.3297270628552 0  492.3500664487791 188.6286280724281 0  490.5670000344809 181.9741336371959 0  488.6012504175981 175.3712970824318 0  486.4543103623226 168.8251325157939 0  484.1278102222298 162.3406109960628 0  481.6235167152198 155.9226567951971 0  478.9433315621651 149.5761436051346 0  476.0892900516498 143.3058908657982 0  473.063559513628 137.1166601437124 0  469.8684376406648 131.0131514433083 0  466.5063507675389 124.9999996907064 0  462.9798520124137 119.0817711822745 0  459.2916193464549 113.2629601339176 0  455.4444535642773 107.5479852733717 0  451.4412761528674 101.9411864767781 0  447.2851270583545 96.44682145403524 0  442.9791624165781 91.06906256805769 0  438.5266521117469 85.81199360630404 0  433.9309773156125 80.67960671046254 0  429.1956279150353 75.67579933888632 0  424.3241998888952 70.80437133373906 0  419.3203925223282 66.06902197812161 0  414.1880056411937 61.47334723289828 0  408.9309366751728 57.0208369601728 0  403.5531778009394 52.71487236176898 0  398.058812796452 48.55872331295853 0  392.4520140187753 44.55554594490843 0  386.7370391799677 40.70838020528396 0  380.9182281475119 37.02014757560744 0  374.9999996718656 33.49364886444181 0  368.9868479340393 30.13156202237255 0  362.8833392380029 26.93644017348339 0  356.6941085456942 23.91070967062674 0  350.4238558420009 21.0566681953261 0  344.0773426899492 18.37648307566465 0  337.6593885328982 15.87218960140942 0  331.1748670549786 13.54568949032341 0  324.6287025315056 11.39874946165088 0  318.0258660010876 9.432999863235466 0  311.3713716017894 7.649933468721599 0  304.6702726190621 6.050904302234756 0  297.9276578269805 4.637126656823085 0  291.148647441857 3.409674127905504 0  284.3383893425031 2.369478825079682 0  277.502055159398 1.517330660648639 0  270.6448362875833 0.853876741662134 0  263.7719400401456 0.3796208889774277 0  256.8885855592052 0.09492324285704967 0  243.1114143979462 0.09492324403817065 0  236.2280598850882 0.3796208931023841 0  229.3551635938215 0.8538767514891958 0  222.4979446968584 1.517330676558146 0  215.6616104703111 2.369478851036291 0  208.8513523382973 3.409674164591252 0  202.0723419066374 4.637126708856528 0  195.3297270659513 6.050904372824903 0  188.628628074828 7.649933550613184 0  181.9741336377093 9.432999965373938 0  175.3712970793675 11.39874958336037 0  168.8251325057572 13.54568964112298 0  162.340610986655 15.87218978129263 0  155.9226567874317 18.37648328793418 0  149.576143602509 21.05666843898663 0  143.3058908718157 23.91070994551046 0  137.1166601505524 26.93644048291054 0  131.0131514451933 30.13156235831508 0  124.9999996848412 33.49364923584736 0  119.0817711715717 37.0201479941652 0  113.2629601211624 40.70838066187849 0  107.5479852622251 44.55554644345162 0  101.9411864693332 48.55872385260452 0  96.44682143286516 52.71487295812284 0  91.06906254351222 57.02083760363669 0  85.81199358272519 61.4733479087879 0  80.67960667988106 66.06902271253972 0  75.67579930062769 70.80437212218331 0  70.80437129287643 75.67580015310926 0  66.06902193673014 80.67960752263491 0  61.47334718684866 85.81199441168215 0  57.02083692524275 91.0690633672404 0  52.71487232786438 96.44682224262129 0  48.55872328070024 101.941187247437 0  44.55554591578033 107.5479860232332 0  40.7083801742321 113.2629608675606 0  37.02014754791168 119.0817718975441 0  33.49364883372994 125.000000381329 0  30.13156199866361 131.0131521097709 0  26.9364401549829 137.1166607985551 0  23.91070965524918 143.3058914868915 0  21.05666818346614 149.576144185037 0  18.37648306853811 155.9226573275967 0  15.8721895918909 162.3406114925245 0  13.54568948170046 168.8251329701392 0  11.39874945301878 175.3712974960928 0  9.432999857087736 181.9741340206533 0  7.649933466342702 188.6286284076045 0  6.050904301250966 195.3297273853278 0  4.637126656808988 202.0723421730917 0  3.409674127767772 208.8513525589684 0  2.369478824521138 215.6616106615248 0  1.517330660909465 222.4979448382452 0  0.8538767414496533 229.355163714981 0  0.3796208887135322 236.2280599646376 0  0.09492324266324204 243.1114144478261 0  0.0949232442452228 256.8885856095658 0  0.3796208935834784 263.7719401236316 0  0.8538767530323526 270.6448364248016 0  1.517330679476544 277.5020553295092 0  2.369478854618649 284.3383895555228 0  3.409674170191892 291.1486476952655 0  4.6371267162381 297.9276581311522 0  6.050904381420935 304.6702729724059 0  7.649933562385399 311.3713719716595 0  9.43299997979841 318.0258664133013 0  11.3987495994252 324.6287029719946 0  13.54568965885832 331.174867545904 0  15.87218979367188 337.6593890464085 0  18.37648329843151 344.0773432384132 0  21.05666844777872 350.423856417535 0  23.91070995156048 356.6941091410045 0  26.93644048988043 362.8833398632205 0  30.13156235982007 368.9868485575877 0  33.49364924138357 375.0000003247478 0  37.0201480006036 380.9182288389023 0  40.70838066758398 386.7370398875706 0  44.55554644477201 392.4520147396792 0  48.55872386086904 398.0588135419111 0  52.71487295981296 403.5531785693063 0  57.02083760525949 408.9309374584583 0  61.47334790862246 414.1880064170849 0  66.06902271205095 419.320393319588 0  70.80437211216579 424.3242006890749 0  75.67580013809859 429.195628692521 0  80.6796075127923 433.930978054209 0  85.81199439754931 438.5266528008431 0  91.06906334717917 442.9791630582355 0  96.44682221438322 447.2851276501571 0  101.9411872243843 451.441276702356 0  107.5479859945825 455.4444540643537 0  113.2629608446994 459.2916198108319 0  119.0817718768376 462.9798524393601 0  125.0000003647644 466.5063511567065 0  131.0131521012763 469.8684379967393 0  137.1166607840049 473.0635598376539 0  143.3058914748804 476.0892903390826 0  149.5761441732679 478.9433318113714 0  155.9226573130112 481.6235169255377 0  162.3406114779862 484.1278104026658 0  168.8251329570439 486.4543105138039 0  175.3712974805475 488.601250542119 0  181.9741340135204 490.5670001408953 0  188.6286284005059 492.3500665318597 0  195.3297273788229 493.9490956972913 0  202.0723421640089 495.3628733414168 0  208.8513525529672 496.5903258712308 0  215.6616106544547 497.6305211744985 0  222.4979448327038 498.4826693384772 0  229.3551637102845 499.1461232581612 0  236.2280599621369 499.6203791111485 0  243.1114144470173 499.9050767573145 0  155.2373389820306 474.8197567317462 0  25.36256300907667 153.9152755065208 0  432.3709625126712 412.6214396304305 0  6.013151705810699 246.637913163471 0  246.6379131630491 493.986848294322 0  338.6995838441862 22.68244767887072 0  477.3175523131281 338.6995838660569 0  493.9868482700757 246.6379131399102 0  246.6201155078769 6.218451882810491 0  417.6179310263282 72.7156044707053 0  102.2232990934413 445.0100869616822 0  63.66330858966404 92.20354579482142 0  391.3105220491464 50.73522820883105 0  72.79295043967942 418.0702734974704 0  448.290574428537 108.25674339002 0  402.4604651193511 440.7462829841712 0  97.55317348421397 59.11376320116034 0  136.7376477664901 33.58246472647134 0  363.3288394375288 465.6947312928271 0  44.0678766556007 381.0860953771871 0  469.6905266180034 142.3890690100806 0  22.68244791668644 338.6995843487432 0  338.699584349159 477.317552078365 0  173.389488083762 18.6681884918202 0  483.4809734778481 179.7121987795732 0  13.50237455842738 306.4709525540879 0  305.9825168523021 487.24416992
[...]
<PointData  Vectors="f_12"> 
<DataArray  type="Float64"  Name="f_12"  NumberOfComponents="3" format="ascii">6.5034904189370046e-01 6.2805644716339692e-01 5.9220523267387459e-01  5.1349124615648667e-01 2.0075243608830673e-01 5.6104200961863182e-01  6.3896497104504635e-01 7.0631405419708082e-01 4.7801905538863754e-01  6.2693806821994702e-01 6.8896310234049529e-01 4.8718028931242052e-01  6.3869040331567484e-01 7.0735712016123364e-01 4.7630046959571820e-01  6.3843888532637050e-01 7.0829604247816358e-01 4.7474676400642535e-01  6.3819519168873207e-01 7.0919300011399899e-01 4.7325705228510290e-01  6.3797234892068744e-01 7.1000180448207784e-01 4.7190896676524663e-01  6.3776496471137112e-01 7.1074447063913448e-01 4.7066688760647341e-01  6.3757426527540861e-01 7.1141987716361921e-01 4.6953391162600766e-01  6.3740030229145639e-01 7.1202962209050413e-01 4.6850827047316818e-01  6.3724198797558729e-01 7.1257932917858680e-01 4.6758127038461050e-01  6.3710090267981745e-01 7.1306509761738479e-01 4.6676019748885994e-01  6.3697825042215639e-01 7.1348414812561900e-01 4.6605045911630860e-01  6.3688434529980797e-01 7.1380239664847467e-01 4.6551031627569606e-01  6.3678610106776490e-01 7.1413556344620344e-01 4.6494465705658272e-01  6.3673536525256724e-01 7.1430541005141901e-01 4.6465545051512669e-01  6.3668473675633253e-01 7.1447590430871244e-01 4.6436540827468503e-01  6.3665666902474616e-01 7.1457010536917909e-01 4.6420501012065007e-01  6.3664516300964780e-01 7.1460935164983008e-01 4.6413834209661753e-01  6.3664843204824151e-01 7.1460009038476224e-01 4.6415451926984758e-01  6.3668056314625299e-01 7.1449288722831550e-01 4.6433716860782825e-01  6.3673256807508283e-01 7.1431861748418279e-01 4.6463387484670082e-01  6.3679074761628429e-01 7.1412466869411995e-01 4.6496422358771550e-01  6.3686887599870279e-01 7.1386274303221353e-01 4.6540979187688447e-01  6.3697228364355507e-01 7.1351273730889464e-01 4.6600387681736327e-01  6.3710285436106118e-01 7.1306723233322644e-01 4.6675852329935380e-01  6.3723803434021264e-01 7.1260401095095793e-01 4.6754202742656376e-01  6.3739038399425174e-01 7.1207755863860944e-01 4.6843046143086253e-01  6.3757421905502965e-01 7.1143469453524055e-01 4.6951215997341594e-01  6.3776617606343255e-01 7.1075690488268306e-01 4.7064960787984783e-01  6.3797942567991284e-01 7.0999407579802687e-01 4.7192546484219983e-01  6.3821169046470438e-01 7.0915233209620476e-01 4.7332864473967468e-01  6.3845533853699221e-01 7.0825752437168754e-01 4.7481501278161792e-01  6.3872903804744752e-01 7.0723453157490590e-01 4.7650701126619760e-01  6.3901705237419282e-01 7.0613982496360717e-01 4.7831009684083275e-01  6.3931201070221244e-01 7.0500036257313548e-01 4.8017894729626293e-01  6.3963442666356807e-01 7.0372769162827931e-01 4.8225574498855062e-01  6.3998460942175917e-01 7.0231216120526596e-01 4.8455316405344351e-01  6.4034315826871291e-01 7.0083011916114479e-01 4.8694577380271636e-01  6.4070813826583672e-01 6.9928561334754236e-01 4.8942552965605784e-01  6.4109833094065538e-01 6.9758784385439121e-01 4.9213471852592716e-01  6.4151309285460756e-01 6.9573064638156512e-01 4.9507978010508968e-01  6.4193706482380164e-01 6.9377140768201173e-01 4.9816586675289182e-01  6.4237996407888565e-01 6.9165273841153363e-01 5.0147948459490155e-01  6.4283753990430892e-01 6.8938609903123971e-01 5.0499912662454183e-01  6.4330677439444373e-01 6.8696990367595234e-01 5.0872246023539280e-01  6.4378505032225375e-01 6.8440216894113315e-01 5.1264847651218459e-01  6.4428702360489565e-01 6.8157791675421986e-01 5.1692919429359785e-01  6.4479420536753584e-01 6.7858488400583394e-01 5.2142745749718655e-01  6.4530749879054961e-01 6.7538232515991758e-01 5.2619517252827919e-01  6.4582847704680002e-01 6.7194501349701929e-01 5.3126520839872826e-01  6.4634948504931233e-01 6.6827703026440144e-01 5.3662062324861171e-01  6.4687805674906207e-01 6.6428367458526827e-01 5.4239046636007948e-01  6.4740098583362293e-01 6.6001338382835961e-01 5.4849171580387812e-01  6.4791208371107178e-01 6.5545654225414551e-01 5.5492728485616205e-01  6.4841485144942901e-01 6.5051903930355370e-01 5.6181934626795116e-01  6.4890471275428419e-01 6.4520324115368699e-01 5.6913123059599890e-01  6.4932525661892060e-01 6.3934131217188739e-01 5.7708473110110015e-01  6.4955202046695049e-01 6.3474089576634429e-01 5.8337919786581827e-01  6.5162671610187139e-01 6.1914751450934147e-01 6.0512876695124540e-01  6.5129289644684774e-01 5.6434137563938047e-01 6.6444362664131673e-01  6.0992463220193405e-01 3.1966898646228858e-01 8.6374490672857518e-01  5.1555418639878392e-01 1.2100940922259883e-01 6.0606420761435953e-01  4.7657388629257991e-01 1.8953166257710369e-01 3.2100144510644552e-01  5.1047714990201742e-01 4.7292505825422904e-01 3.1056751383440195e-01  5.4852533198821740e-01 4.8159060900661649e-01 5.0600483428092435e-01  5.1337885474493739e-01 2.0770456108691576e-01 5.5398231155137656e-01  5.0782405116633889e-01 1.0569699791053433e-01 5.6513551847054422e-01  5.6041650771596652e-01 1.5883538910975425e-01 7.9434597171052312e-01  5.9061132816467798e-01 2.2753200399654597e-01 8.5099719433292664e-01  5.6194582508880553e-01 1.5977501617586939e-01 7.9598854842606981e-01  5.1582234288034823e-01 9.5647591121949274e-02 6.0577450427732971e-01  4.8587076683523256e-01 8.6952623172554089e-02 4.2811823032646107e-01  4.8241783889445405e-01 1.0987265849412559e-01 4.0267945224309898e-01  5.3081728798336947e-01 2.0104584117021634e-01 6.6287255518778698e-01  5.7955637097704349e-01 4.6851312112793431e-01 6.4292165427849279e-01  5.2692577229118320e-01 5.2671941559633817e-01 3.5187397344580207e-01  4.6762035847516970e-01 2.1133204442037207e-01 2.4337681942799982e-01  4.6167305127158126e-01 9.8918636805988031e-02 2.6573346771850131e-01  4.6023895974405599e-01 1.3946593766563528e-01 2.3256631304956679e-01  4.7293201624775905e-01 3.3446901241633170e-01 1.9854890955240284e-01  5.3505179969109895e-01 6.3208556420376283e-01 2.8718876792810755e-01  5.9197084350822715e-01 5.6059298653617728e-01 5.7988127921256538e-01  5.7342357697629864e-01 2.7109046721879809e-01 7.9714076025701719e-01  5.6138061521256022e-01 1.8344375018105133e-01 7.9660019732167742e-01  5.8975187791024530e-01 2.7422138225043674e-01 8.4187316914414401e-01  6.1858736405932824e-01 5.2373315288875033e-01 6.8487049281948342e-01  6.1254855196359337e-01 7.4639735578832922e-01 3.8715345279314167e-01  6.1920650759784879e-01 7.2894511613329616e-01 4.2093689755100283e-01  6.3312725450650531e-01 5.5540649172136825e-01 6.6488438836208785e-01  6.0797821984452172e-01 3.2252693527016935e-01 8.4798124078611670e-01  5.4938030118324721e-01 1.4049701489667316e-01 7.6684251099693901e-01  4.9812970122201189e-01 8.7355498475076676e-02 5.0787377875344397e-01  4.6971553078040607e-01 9.9147688797353278e-02 3.1797801885050797e-01  4.5934902909850533e-01 1.5070564898631469e-01 2.2185255931700842e-01  4.6302682805399303e-01 2.5607958825126992e-01 1.8122251836029712e-01  4.8091952900784307e-01 4.2029053934756316e-01 1.7851600096923456e-01  5.0828966284207544e-01 5.9458849880297182e-01 1.9753949391826706e-01  5.3810337014029563e-01 7.0475809206464723e-01 2.2978024100419900e-01  5.6436183959378472e-01 7.4843326869423210e-01 2.7314407341991292e-01  5.7739739153716840e-01 7.5971834458536691e-01 2.9599010297071798e-01  5.8078407705700585e-01 7.6026587014580771e-01 3.0383025558800247e-01  5.7205672450352363e-01 7.5617224517431347e-01 2.8609349365251885e-01  5.5101357995232425e-01 7.2767228532989170e-01 2.5287607987302874e-01  5.1996024896389459e-01 6.3849005951033122e-01 2.1364335958722064e-01  4.8777240884465894e-01 4.6750762949469354e-01 1.8534323220637097e-01  4.6566146224530880e-01 2.7794061527409558e-01 1.8361482402794838e-01  4.6047887807787402e-01 1.5183506451890660e-01 2.2831129580431822e-01  4.7466870334111239e-01 9.5573777093229714e-02 3.5208718684245843e-01  5.1280120611788549e-01 9.5314680882233827e-02 5.9335156430641522e-01  5.7528202828648423e-01 1.9567424413494958e-01 8.3952596717848971e-01  6.2428914548054415e-01 4.0385549480345106e-01 8.0742972406628311e-01  6.3377592133741989e-01 5.9951398979462966e-01 6.1354741658863465e-01  6.1457936186577133e-01 7.4118206165467770e-01 3.9808310708907563e-01  6.0772137821244088e-01 7.6585250658270132e-01 3.5235754235208266e-01  6.3851251785226859e-01 5.9657338685033146e-01 6.1498463023203143e-01  6.4420083428041575e-01 5.4686622817677943e-01 6.8974481281989675e-01  6.4118160004151104e-01 5.1478900723211440e-01 7.1537808997144381e-01  6.4679034310676564e-01 5.5891572386413968e-01 6.6775279364203999e-01  6.5091044726154113e-01 6.0610177329001291e-01 6.1631552542956936e-01  6.4112459419264878e-01 5.8233578762889648e-01 6.4053250407982243e-01  6.0775419994786506e-01 5.1822905143765741e-01 6.6967357751775425e-01  5.4538173099622456e-01 4.8713995418071254e-01 4.8828354532362683e-01  4.8516563462004308e-01 2.6680535189060878e-01 3.2417559286744058e-01  4.9661210507581660e-01 1.2337121777859926e-01 4.9274170108994575e-01  5.7532366641711541e-01 2.4630118518967248e-01 8.2571778167909304e-01  6.1688555083359353e-01 5.5076417356759744e-01 6.4667165144412442e-01  5.7323166816656579e-01 6.8654088822507164e-01 3.7560385060336654e-01  5.0160977750687219e-01 5.4816539966068112e-01 2.0175701970052082e-01  4.7651850772291593e-01 4.1663410171003834e-01 1.5729984387408980e-01  5.1398999807072199e-01 5.9663704645922899e-01 2.2442793879825063e-01  5.7663696805491171e-01 7.2296896183483861e-01 3.4268994212719039e-01  6.2299218949486923e-01 6.8925097037704275e-01 4.8108017434751749e-01  6.4012096234806826e-01 5.7256143402212922e-01 6.4974582322437024e-01  6.2638258059508378e-01 3.9798291345795322e-01 8.1611315600068202e-01  5.8184942181820221e-01 2.1173141798446599e-01 8.4753276755213514e-01  5.2647839888237113e-01 1.0564452330748536e-01 6.6434728234453522e-01  4.8640516606144435e-01 8.4757151941807232e-02 4.3432500334193469e-01  4.6549321621587131e-01 1.0492586822875845e-01 2.8759696354668762e-01  4.5824927773049734e-01 1.5472581335387811e-01 2.1248902132252304e-01  4.6016437914382263e-01 2.2944277453303058e-01 1.7942640533912144e-01  4.6724279104242628e-01 3.1528886600173556e-01 1.6822911647694591e-01  4.7507375772074939e-01 3.8764089266857382e-01 1.6688017461220961e-01  4.8015360065744606e-01 4.2792484252277618e-01 1.6839164940312337e-01  4.8029305336202011e-01 4.2832948285188727e-01 1.6864803872991829e-01  4.7571606106187875e-01 3.9173337709044959e-01 1.6800370256814345e-01  4.6796612707695112e-01 3.2322789583432909e-01 1.6760031012656634e-01  4.6089962419887215e-01 2.4229354622281135e-01 1.7565883187121253e-01  4.5688407308318268e-01 1.6551132677354066e-01 1.9773206572562405e-01  4.6108170498661855e-01 1.1713093625679745e-01 2.5194879423135041e-01  4.7420445665974775e-01 8.8073007569860098e-02 3.5390371198782034e-01  5.0146129765282910e-01 8.6366741890908816e-02 5.2924836340950210e-01  5.4729263281045215e-01 1.3525966324859751e-01 7.5669518156980464e-01  6.0213824759865930e-01 2.8808693162771304e-01 8.5752766231829025e-01  6.3598844128977206e-01 5.0824385976595254e-01 7.1831700013393829e-01  6.3267195751471472e-01 6.7349391841396455e-01 5.1414189878224159e-01  5.9977142698572317e-01 7.4887033994595131e-01 3.6161048750260527e-01  5.6294286011836192e-01 7.6353482063938471e-01 2.5355085882700218e-01  5.7667593745180545e-01 7.4008362839849184e-01 3.1363259812337957e-01  5.9378953163579928e-01 4.9409489875089696e-01 6.6737087385182658e-01  5.2886205249739560e-01 1.9686535354200382e-01 6.5723538749574706e-01  4.9080705387959256e-01 1.7539381631042852e-01 4.2723130363568929e-01  5.2788393667709221e-01 2.5765679136334368e-01 6.0558926372233912e-01  5.9760948469942077e-01 4.8636373990198223e-01 6.8766272550062846e-01  5.9740704777795484e-01 7.0317580809373748e-01 4.1371641122506908e-01  5.3885881339914088e-01 6.7918575150547023e-01 2.5861016376743168e-01  4.8693417952648688e-01 4.5336205985275163e-01 1.9005610485456795e-01  4.6322450674643068e-01 2.8550198120769182e-01 1.6155064344286918e-01  4.8182561090223708e-01 4.1087989838302519e-01 1.9678462985653325e-01  5.5693710428545684e-01 6.1348546022060424e-01 3.9685569213093613e-01  5.8179545398542876e-01 4.2092535523933500e-01 7.0464932824225479e-01  4.7054823674215202e-01 1.4553290998929533e-01 3.0110775915439492e-01  4.7269138121165460e-01 9.9191535679671247e-02 3.3641189612901484e-01  5.0215823794016379e-01 9.0135238305474583e-02 5.2769216261828045e-01  5.5094533050769623e-01 1.3811255879532069e-01 7.6110356985017080e-01  5.7450307572285997e-01 1.8371915257873245e-01 8.2600311233085788e-01  5.4077477992190914e-01 1.2821486511771993e-01 7.2412326866217991e-01  5.1222399942357799e-01 1.2702746215407260e-01 5.8862709882940523e-01  5.4433661479534401e-01 3.2204417805319335e-01 6.3734915316013108e-01  5.4008486312138682e-01 5.3072940728276674e-01 4.1048183221044016e-01  4.8382066274847396e-01 3.1122007331629142e-01 2.8521135996133279e-01  4.8392327398402235e-01 1.1586546801476336e-01 4.0932128875997648e-01  5.5505576344009977e-01 1.6071361268034892e-01 7.8594028627508705e-01  6.3244542478058452e-01 4.0458290921267431e-01 8.1310969170200853e-01  6.5101058701166881e-01 5.3480120985787882e-01 6.9806760148328628e-01  6.5042420483664931e-01 5.5149205960821013e-01 6.8494290666135038e-01  6.5022913086909417e-01 5.5793327338281840e-01 6.7674561848369996e-01  6.5048282097124510e-01 5.6505161676614668e-01 6.6881425100985359e-01  6.5074597993162753e-01 5.7266905057819084e-01 6.6020471095210465e-01  6.5090534957932633e-01 5.8012672409105936e-01 6.5153833889583446e-01  6.5098266685308015e-01 5.8711266877852397e-01 6.4330427086342423e-01  6.5100061904014406e-01 5.9375785764933231e-01 6.3533000773961124e-01  6.5096212783969654e-01 6.0006598107223996e-01 6.2764505383329738e-01  6.5087358257269701e-01 6.0608452452097450e-01 6.2020416035284831e-01  6.5073931554923248e-01 6.1183115639133445e-01 6.1299876876293047e-01  6.5056598989636105e-01 6.1726967765468999e-01 6.0608892876837661e-01  6.5035599067418626e-01 6.2247005322362847e-01 5.9939640353205326e-01  6.5011332444269065e-01 6.2746206442062435e-01 5.9289520249317140e-01  6.4984428981367359e-01 6.3217355043449863e-01 5.8668593602052843e-01  6.4954747399679624e-01 6.3671144609693997e-01 5.8063868953564213e-01  6.4922866216008424e-01 6.4105151745272615e-01 5.7479198158897726e-01  6.4889082740339588e-01 6.4518983885539827e-01 5.6915904604456968e-01  6.4853550645595204e-01 6.4914768630774622e-01 5.6371685127054116e-01  6.4816552580216602e-01 6.5293219171191819e-01 5.5846208068289982e-01  6.4778162883397306e-01 6.5656197084069567e-01 5.5337411564427952e-01  6.4738425503720043e-01 6.6005861620952477e-01 5.4842738402717328e-01  6.4698311532668207e-01 6.6336198327800278e-01 5.4371229309206048e-01  6.4657617643706089e-01 6.6651021228569529e-01 5.3917934501029907e-01  6.4615601086242824e-01 6.6958165638894196e-01 5.3471960339613944e-01  6.4573624917205485e-01 6.7248776168610969e-01 5.3046492161734560e-01  6.4531730422338784e-01 6.7524183718761632e-01 5.2640005742757756e-01  6.4489485592351181e-01 6.7789255690156136e-01 5.2245737139600490e-01  6.4447393709362866e-01 6.8041957400115027e-01 5.1867009360187200e-01  6.4405180793528416e-01 6.8284704176478872e-01 5.1500483240799289e-01  6.4363853655673864e-01 6.8513355431340883e-01 5.1152754885765084e-01  6.4322537734603968e-01 6.8733289086127247e-01 5.0815923403547647e-01  6.4281968336681117e-01 6.8941658685863350e-01 5.0494609242484456e-01  6.4241843260117137e-01 6.9141096483917697e-01 5.0185024731955097e-01  6.4202121119955580e-01 6.9332464345597877e-01 4.9886070506254698e-01  6.4163833683022253e-01 6.9511018679416903e-01 4.9605343208990743e-01  6.4126631385993593e-01 6.9679641675692916e-01 4.9338596758787706e-01  6.4089784537212813e-01 6.9842390978357805e-01 4.9079676254920790e-01  6.4054435704069501e-01 6.9994492612311199e-01 4.8836297905413029e-01  6.4020515462459382e-01 7.0136848922382322e-01 4.8607261003817032e-01  6.3987619356069536e-01 7.0271918056395455e-01 4.8388814113866069e-01  6.3955883123111446e-01 7.0399546058030904e-01 4.8181403174666471e-01  6.3925871790624222e-01 7.0517785060240745e-01 4.7988298703115517e-01  6.4432082518397460e-01 6.8130167759544691e-01 5.1734000720584183e-01  5.9650390119613739e-01 7.4231971217631820e-01 3.6247395412387567e-01  6.3870306889583006e-01 7.0732505095867615e-01 4.7635606636399946e-01  5.4816534418951257e-01 2.7230643943371008e-01 7.0322421204754582e-01  6.3920121675252284e-01 7.0539580735354723e-01 4.7952480506805734e-01  5.9937750497792341e-01 7.0595627750659784e-01 4.1610574497488956e-01  6.4364950586886516e-01 6.8511927369670245e-01 5.1155196592461882e-01  6.5115383151452533e-01 6.2062918492091634e-01 6.0146351808965903e-01  6.2287496444952839e-01 5.0256400633549814e-01 7.1202739725455111e-01  6.1844283968786662e-01 7.3696199003160845e-01 4.0789378777079621e-01  6.4802535637973890e-01 6.5427222332819868e-01 5.5658789871584491e-01  4.9476785044957622e-01 4.8698254266014990e-01 2.0907642993011596e-01  4.7216189953950671e-01 1.0159049100461827e-01 3.3236037135475222e-01  6.4999899973107933e-01 6.2951193048981924e-01 5.9020141070655996e-01  5.1158982672902875e-01 5.5754430111947384e-01 2.4659714590482365e-01  6.3740489201017458e-01 7.1201919202038977e-01 4.6852675556625856e-01  4.6255749713985866e-01 1.6871051353119826e-01 2.3199788507025476e-01  6.0955253156523337e-01 6.9558392960090520e-01 4.5144442495052867e-01  6.3677250817344888e-01 7.1417848669230322e-01 4.6487091406647812e-01  6.5099686726224848e-01 5.9031219983984862e-01 6.3947646110423884e-01  5.6382392854271457e-01 3.2454446589529812e-01 7.2601167600046690e-01  6.3491029935442334e-01 4.1790579890365259e-01 8.1888365715551670e-01  6.3680407493126001e-01 7.1406917692133598e-01 4.6505583153019892e-01  6.0981766972143481e-01 4.0037170563132757e-01 7.9781488454046434e-01  5.8792017069799563e-01 2.1996568378402198e-01 8.5104474192970836e-01  5.5049941513526524e-01 4.4891473098499429e-01 5.4481252087449838e-01  6.3728872291643213e-01 7.1241120555466320e-01 4.6786330864193815e-01  6.4190192257583811e-01 6.9387870506954141e-01 4.9799041150008599e-01  5.6188149867068771e-01 3.3099386595054547e-01 7.1319407087892994e-01  4.6429391630142575e-01 1.4150170787927233e-01 2.5893015057202062e-01  6.4670180725701998e-01 6.6562197884251217e-01 5.4046196784436851e-01  6.4055309547524397e-01 6.9993460594106227e-01 4.8838280664142947e-01  6.1873536449032518e-01 5.2066959931612866e-01 6.8499363530728297e-01  5.4087722102026825e-01 5.3330819490062842e-01 4.1272563312375588e-01  5.7198324240322296e-01 1.7820377996954484e-01 8.2072361261486604e-01  6.3796107508195410e-01 7.1003591124493715e-01 4.7185033477235017e-01  5.1248022522340375e-01 5.8355051732886987e-01 2.2437338799731543e-01  5.0425567910863855e-01 9.6680298614660154e-02 5.4108552470964433e-01  6.4044967786997831e-01 7.0033827317630859e-01 4.8772994207305570e-01  6.4601549857371787e-01 6.7056407480684432e-01 5.3328535971915803e-01  4.6952465735129961e-01 3.3322161305430281e-01 1.6988693420308576e-01  6.2700489208213817e-01 4.4872202529295713e-01 7.7191207314854149e-01  6.4867544801327370e-01 6.4769380489855743e-01 5.6571005886532177e-01  6.3706418785810959e-01 7.1318978000575828e-01 4.6654853971667004e-01  6.4515962741566735e-01 6.7629855639318259e-01 5.2483333667940768e-01  6.2050796338740000e-01 4.1022499162652171e-01 7.9628354207294161e-01  5.2653026424593774e-01 6.3312880072014721e-01 2.4856284848215304e-01  5.3784990100067875e-01 1.4231973307249479e-01 7.2800259545227097e-01  5.7590509301174941e-01 2.1884602550046175e-01 8.2958364110634641e-01  6.4308506836962842e-01 6.8805120407130571e-01 5.0705217096676647e-01  6.3960512070986009e-01 7.0383310985262304e-01 4.8208203546631384e-01  6.5066571149935348e-01 6.1424634094825281e-01 6.0994082672373295e-01  5.3179502411669466e-01 1.1902171856901193e-01 6.8705169885697748e-01  6.5062532577666143e-01 5.6891392558114562e-01 6.6442748161590082e-01  5.6740835354723795e-01 3.1206358622582930e-01 7.5374157277675602e-01  6.4182880355703487e-01 6.9426467000443992e-01 4.9738875360223861e-01  6.4909929580