<?xml version="1.0"?>
<VTKFile type="UnstructuredGrid"  version="0.1"  >
<UnstructuredGrid>
<Piece  NumberOfPoints="4940" NumberOfCells="9650">
<Points>
<DataArray  type="Float64"  NumberOfComponents="3"  format="ascii">500 250 0  0 250 0  250 500 0  250 0 0  256.8885856082646 499.9050767557906 0  263.7719401218049 499.6203791065173 0  270.6448364229772 499.1461232471188 0  277.5020553257866 498.4826693209355 0  284.3383895508592 497.6305211460281 0  291.1486476865662 496.5903258312597 0  297.9276581259182 495.3628732847843 0  304.6702729675493 493.9490956196674 0  311.3713719748657 492.3500664368026 0  318.0258664141369 490.5670000199653 0  324.6287029687753 488.6012504015818 0  331.1748675330201 486.4543103455647 0  337.6593890460416 484.1278102064655 0  344.0773432429536 481.6235166997244 0  350.4238564271474 478.9433315480048 0  356.694109139292 476.0892900492477 0  362.88333985546 473.0635595140469 0  368.9868485575419 469.8684376402048 0  375.0000003153078 466.5063507640667 0  380.9182288257928 462.9798520074548 0  386.7370398729688 459.2916193419558 0  392.4520147244077 455.444453565817 0  398.0588135356345 451.4412761437442 0  403.5531785622926 447.285127045646 0  408.9309374414144 442.9791624087773 0  414.1880064015299 438.5266521049243 0  419.3203932989752 433.9309773069245 0  424.324200661095 429.1956279150535 0  429.1956286596235 424.3241998957182 0  433.9309780058756 419.3203925397119 0  438.5266527445345 414.1880056671062 0  442.9791630130591 408.9309367076756 0  447.2851276060475 403.5531778422888 0  451.4412766621026 398.0588128303826 0  455.4444540361634 392.4520140460735 0  459.2916197786263 386.7370392045948 0  462.9798524073514 380.9182281752347 0  466.5063511234856 374.9999996927758 0  469.8684379657123 368.9868479560565 0  473.0635598144817 362.8833392617846 0  476.0892903190255 356.6941085676214 0  478.9433317963513 350.4238558609745 0  481.6235169154735 344.0773427117675 0  484.12781039012 337.6593885555221 0  486.4543105028062 331.1748670749914 0  488.601250531677 324.6287025528375 0  490.5670001317469 318.0258660188321 0  492.3500665291326 311.3713716102628 0  493.949095695951 304.6702726271575 0  495.3628733416623 297.9276578347343 0  496.5903258712341 291.1486474470129 0  497.6305211749058 284.3383893426084 0  498.4826693388848 277.502055163614 0  499.1461232580606 270.6448362909296 0  499.6203791109319 263.7719400417897 0  499.9050767571306 256.8885855596534 0  499.9050767559877 243.1114143988867 0  499.6203791069493 236.2280598860241 0  499.1461232485393 229.3551635941651 0  498.4826693235677 222.4979446979962 0  497.6305211491849 215.6616104719064 0  496.5903258357701 208.8513523404629 0  495.3628732906988 202.0723419043604 0  493.9490956264813 195.3297270628552 0  492.3500664487791 188.6286280724281 0  490.5670000344809 181.9741336371959 0  488.6012504175981 175.3712970824318 0  486.4543103623226 168.8251325157939 0  484.1278102222298 162.3406109960628 0  481.6235167152198 155.9226567951971 0  478.9433315621651 149.5761436051346 0  476.0892900516498 143.3058908657982 0  473.063559513628 137.1166601437124 0  469.8684376406648 131.0131514433083 0  466.5063507675389 124.9999996907064 0  462.9798520124137 119.0817711822745 0  459.2916193464549 113.2629601339176 0  455.4444535642773 107.5479852733717 0  451.4412761528674 101.9411864767781 0  447.2851270583545 96.44682145403524 0  442.9791624165781 91.06906256805769 0  438.5266521117469 85.81199360630404 0  433.9309773156125 80.67960671046254 0  429.1956279150353 75.67579933888632 0  424.3241998888952 70.80437133373906 0  419.3203925223282 66.06902197812161 0  414.1880056411937 61.47334723289828 0  408.9309366751728 57.0208369601728 0  403.5531778009394 52.71487236176898 0  398.058812796452 48.55872331295853 0  392.4520140187753 44.55554594490843 0  386.7370391799677 40.70838020528396 0  380.9182281475119 37.02014757560744 0  374.9999996718656 33.49364886444181 0  368.9868479340393 30.13156202237255 0  362.8833392380029 26.93644017348339 0  356.6941085456942 23.91070967062674 0  350.4238558420009 21.0566681953261 0  344.0773426899492 18.37648307566465 0  337.6593885328982 15.87218960140942 0  331.1748670549786 13.54568949032341 0  324.6287025315056 11.39874946165088 0  318.0258660010876 9.432999863235466 0  311.3713716017894 7.649933468721599 0  304.6702726190621 6.050904302234756 0  297.9276578269805 4.637126656823085 0  291.148647441857 3.409674127905504 0  284.3383893425031 2.369478825079682 0  277.502055159398 1.517330660648639 0  270.6448362875833 0.853876741662134 0  263.7719400401456 0.3796208889774277 0  256.8885855592052 0.09492324285704967 0  243.1114143979462 0.09492324403817065 0  236.2280598850882 0.3796208931023841 0  229.3551635938215 0.8538767514891958 0  222.4979446968584 1.517330676558146 0  215.6616104703111 2.369478851036291 0  208.8513523382973 3.409674164591252 0  202.0723419066374 4.637126708856528 0  195.3297270659513 6.050904372824903 0  188.628628074828 7.649933550613184 0  181.9741336377093 9.432999965373938 0  175.3712970793675 11.39874958336037 0  168.8251325057572 13.54568964112298 0  162.340610986655 15.87218978129263 0  155.9226567874317 18.37648328793418 0  149.576143602509 21.05666843898663 0  143.3058908718157 23.91070994551046 0  137.1166601505524 26.93644048291054 0  131.0131514451933 30.13156235831508 0  124.9999996848412 33.49364923584736 0  119.0817711715717 37.0201479941652 0  113.2629601211624 40.70838066187849 0  107.5479852622251 44.55554644345162 0  101.9411864693332 48.55872385260452 0  96.44682143286516 52.71487295812284 0  91.06906254351222 57.02083760363669 0  85.81199358272519 61.4733479087879 0  80.67960667988106 66.06902271253972 0  75.67579930062769 70.80437212218331 0  70.80437129287643 75.67580015310926 0  66.06902193673014 80.67960752263491 0  61.47334718684866 85.81199441168215 0  57.02083692524275 91.0690633672404 0  52.71487232786438 96.44682224262129 0  48.55872328070024 101.941187247437 0  44.55554591578033 107.5479860232332 0  40.7083801742321 113.2629608675606 0  37.02014754791168 119.0817718975441 0  33.49364883372994 125.000000381329 0  30.13156199866361 131.0131521097709 0  26.9364401549829 137.1166607985551 0  23.91070965524918 143.3058914868915 0  21.05666818346614 149.576144185037 0  18.37648306853811 155.9226573275967 0  15.8721895918909 162.3406114925245 0  13.54568948170046 168.8251329701392 0  11.39874945301878 175.3712974960928 0  9.432999857087736 181.9741340206533 0  7.649933466342702 188.6286284076045 0  6.050904301250966 195.3297273853278 0  4.637126656808988 202.0723421730917 0  3.409674127767772 208.8513525589684 0  2.369478824521138 215.6616106615248 0  1.517330660909465 222.4979448382452 0  0.8538767414496533 229.355163714981 0  0.3796208887135322 236.2280599646376 0  0.09492324266324204 243.1114144478261 0  0.0949232442452228 256.8885856095658 0  0.3796208935834784 263.7719401236316 0  0.8538767530323526 270.6448364248016 0  1.517330679476544 277.5020553295092 0  2.369478854618649 284.3383895555228 0  3.409674170191892 291.1486476952655 0  4.6371267162381 297.9276581311522 0  6.050904381420935 304.6702729724059 0  7.649933562385399 311.3713719716595 0  9.43299997979841 318.0258664133013 0  11.3987495994252 324.6287029719946 0  13.54568965885832 331.174867545904 0  15.87218979367188 337.6593890464085 0  18.37648329843151 344.0773432384132 0  21.05666844777872 350.423856417535 0  23.91070995156048 356.6941091410045 0  26.93644048988043 362.8833398632205 0  30.13156235982007 368.9868485575877 0  33.49364924138357 375.0000003247478 0  37.0201480006036 380.9182288389023 0  40.70838066758398 386.7370398875706 0  44.55554644477201 392.4520147396792 0  48.55872386086904 398.0588135419111 0  52.71487295981296 403.5531785693063 0  57.02083760525949 408.9309374584583 0  61.47334790862246 414.1880064170849 0  66.06902271205095 419.320393319588 0  70.80437211216579 424.3242006890749 0  75.67580013809859 429.195628692521 0  80.6796075127923 433.930978054209 0  85.81199439754931 438.5266528008431 0  91.06906334717917 442.9791630582355 0  96.44682221438322 447.2851276501571 0  101.9411872243843 451.441276702356 0  107.5479859945825 455.4444540643537 0  113.2629608446994 459.2916198108319 0  119.0817718768376 462.9798524393601 0  125.0000003647644 466.5063511567065 0  131.0131521012763 469.8684379967393 0  137.1166607840049 473.0635598376539 0  143.3058914748804 476.0892903390826 0  149.5761441732679 478.9433318113714 0  155.9226573130112 481.6235169255377 0  162.3406114779862 484.1278104026658 0  168.8251329570439 486.4543105138039 0  175.3712974805475 488.601250542119 0  181.9741340135204 490.5670001408953 0  188.6286284005059 492.3500665318597 0  195.3297273788229 493.9490956972913 0  202.0723421640089 495.3628733414168 0  208.8513525529672 496.5903258712308 0  215.6616106544547 497.6305211744985 0  222.4979448327038 498.4826693384772 0  229.3551637102845 499.1461232581612 0  236.2280599621369 499.6203791111485 0  243.1114144470173 499.9050767573145 0  155.2373389820306 474.8197567317462 0  25.36256300907667 153.9152755065208 0  432.3709625126712 412.6214396304305 0  6.013151705810699 246.637913163471 0  246.6379131630491 493.986848294322 0  338.6995838441862 22.68244767887072 0  477.3175523131281 338.6995838660569 0  493.9868482700757 246.6379131399102 0  246.6201155078769 6.218451882810491 0  417.6179310263282 72.7156044707053 0  102.2232990934413 445.0100869616822 0  63.66330858966404 92.20354579482142 0  391.3105220491464 50.73522820883105 0  72.79295043967942 418.0702734974704 0  448.290574428537 108.25674339002 0  402.4604651193511 440.7462829841712 0  97.55317348421397 59.11376320116034 0  136.7376477664901 33.58246472647134 0  363.3288394375288 465.6947312928271 0  44.0678766556007 381.0860953771871 0  469.6905266180034 142.3890690100806 0  22.68244791668644 338.6995843487432 0  338.699584349159 477.317552078365 0  173.389488083762 18.6681884918202 0  483.4809734778481 179.7121987795732 0  13.50237455842738 306.4709525540879 0  305.9825168523021 487.24416992
[...]
<PointData  Vectors="f_12"> 
<DataArray  type="Float64"  Name="f_12"  NumberOfComponents="3" format="ascii">4.5711388019767091e-01 1.5762840821772206e-01 2.0026790963699762e-01  4.7911304895367174e-01 4.1938435781198957e-01 1.6413068667644823e-01  4.6100513806911780e-01 1.1333793842315508e-01 2.4982197858827337e-01  4.6982912274596200e-01 9.8288961147344298e-02 3.2030876977823436e-01  4.6113178788695497e-01 1.1272971870053482e-01 2.5096413910368454e-01  4.6124794124728979e-01 1.1218685798395783e-01 2.5200339915910536e-01  4.6136223564543999e-01 1.1166438414727327e-01 2.5301965707925805e-01  4.6146700646765548e-01 1.1119566426311372e-01 2.5394561189982279e-01  4.6156543049481313e-01 1.1076434700181008e-01 2.5481052799512988e-01  4.6165664542144264e-01 1.1037148504873688e-01 2.5560837027569366e-01  4.6174065019479171e-01 1.1001559624651140e-01 2.5633990624197422e-01  4.6181807021420956e-01 1.0969246956019647e-01 2.5701145744033471e-01  4.6188791491542408e-01 1.0940479142753125e-01 2.5761522538915521e-01  4.6194952696977404e-01 1.0915417244632321e-01 2.5814609893076512e-01  4.6199669539711835e-01 1.0896478417689830e-01 2.5855114953870484e-01  4.6204895691706421e-01 1.0875526333875631e-01 2.5899986136620051e-01  4.6207575487740632e-01 1.0864979973791168e-01 2.5922882245571727e-01  4.6210503623925342e-01 1.0853384281052908e-01 2.5947947208611305e-01  4.6212352329651513e-01 1.0846111723878524e-01 2.5963746883485012e-01  4.6213478083108511e-01 1.0841671369099182e-01 2.5973379315245465e-01  4.6213983890534993e-01 1.0839597870003126e-01 2.5977762461071474e-01  4.6213051020790280e-01 1.0843257256978500e-01 2.5969806417296415e-01  4.6211198678896409e-01 1.0850537019686550e-01 2.5953991495922485e-01  4.6209242409258461e-01 1.0858124952567580e-01 2.5937355318809041e-01  4.6206372295895082e-01 1.0869363797157267e-01 2.5912881211080269e-01  4.6202288077938092e-01 1.0885576497302885e-01 2.5877923747455295e-01  4.6196864327234854e-01 1.0907340770253396e-01 2.5831367233295105e-01  4.6191445390882890e-01 1.0929173845242617e-01 2.5784812815029529e-01  4.6185301771793774e-01 1.0954196481752508e-01 2.5731885167547014e-01  4.6177583080180001e-01 1.0986152978876833e-01 2.5665094067626043e-01  4.6169678497219452e-01 1.1019274206269829e-01 2.5596483419672839e-01  4.6160827622861172e-01 1.1057012756775952e-01 2.5519300570688286e-01  4.6151158407036513e-01 1.1098973799522070e-01 2.5434577457610846e-01  4.6141122432176052e-01 1.1143281836051015e-01 2.5346233471248508e-01  4.6129649515228960e-01 1.1195148983284456e-01 2.5244566039631899e-01  4.6117660788114395e-01 1.1250616914133263e-01 2.5137630800302713e-01  4.6105583281891732e-01 1.1307707256516071e-01 2.5029251365085547e-01  4.6092247326986596e-01 1.1372593978737891e-01 2.4908554972900715e-01  4.6077651541099901e-01 1.1445947774572172e-01 2.4775156543998786e-01  4.6062903144523648e-01 1.1522353482071362e-01 2.4639111999612287e-01  4.6048130126191256e-01 1.1601341017257845e-01 2.4501495252749125e-01  4.6032280113230090e-01 1.1689396555567412e-01 2.4352007617725369e-01  4.6015375873153508e-01 1.1787066443370559e-01 2.4190491939729680e-01  4.5998318838005042e-01 1.1889917012905300e-01 2.4025137147653844e-01  4.5980571980702944e-01 1.2002118943759055e-01 2.3850200235145758e-01  4.5962364926153632e-01 1.2122943480323328e-01 2.3667550915857288e-01  4.5943883758936838e-01 1.2252303250230635e-01 2.3478405624596205e-01  4.5925277883174165e-01 1.2390149124368950e-01 2.3283719927228971e-01  4.5905792601976253e-01 1.2544451697810891e-01 2.3074257411754695e-01  4.5886378032116715e-01 1.2708693786940353e-01 2.2859652505351222e-01  4.5867062993103630e-01 1.2885417212965797e-01 2.2638640012863184e-01  4.5847694538863937e-01 1.3077087702614432e-01 2.2408850064131172e-01  4.5828755993901310e-01 1.3282721577950102e-01 2.2173846090556534e-01  4.5809846607867710e-01 1.3510010986127896e-01 2.1926719003613149e-01  4.5791643444852981e-01 1.3755087817409417e-01 2.1673863090282658e-01  4.5774444414771959e-01 1.4018355721144085e-01 2.1416861148253163e-01  4.5758164349106034e-01 1.4307752277167543e-01 2.1150574258168278e-01  4.5743368980384391e-01 1.4621659292641348e-01 2.0879385950670190e-01  4.5730204229707599e-01 1.4961212547848118e-01 2.0603452289795343e-01  4.5719136333808141e-01 1.5320050993048440e-01 2.0329191083427650e-01  4.5705797054522257e-01 1.6200100881454629e-01 1.9740204286640703e-01  4.5704536743564328e-01 1.6687837431144040e-01 1.9450559350727065e-01  4.5707764796535805e-01 1.7217930834753281e-01 1.9163085138506566e-01  4.5716238950517896e-01 1.7814257612260537e-01 1.8868036803999172e-01  4.5731166083235553e-01 1.8467658716838936e-01 1.8577726164330582e-01  4.5753169799739440e-01 1.9187491132218276e-01 1.8289604959629685e-01  4.5784161053162126e-01 1.9983046786799882e-01 1.8009207524327087e-01  4.5825263490128154e-01 2.0865686809577932e-01 1.7735387249747456e-01  4.5878012385416189e-01 2.1840235381055639e-01 1.7473320016047428e-01  4.5944170330410899e-01 2.2916570157519428e-01 1.7226118673760013e-01  4.6027513520158259e-01 2.4130605711988229e-01 1.6992212172580040e-01  4.6128625303701759e-01 2.5467355768586597e-01 1.6781998919575680e-01  4.6251364146721491e-01 2.6957466252697204e-01 1.6595603589490257e-01  4.6400845843766392e-01 2.8633941202913643e-01 1.6438657299131779e-01  4.6580557341193107e-01 3.0509365911498942e-01 1.6316693609617791e-01  4.6795342274735263e-01 3.2601495839394712e-01 1.6238998444337616e-01  4.7051085162481660e-01 3.4936913878590226e-01 1.6210807497942237e-01  4.7355803751625153e-01 3.7544130841681128e-01 1.6244509325212195e-01  4.7719263003928197e-01 4.0455496813031744e-01 1.6352273988897723e-01  4.8150972103095019e-01 4.3686664936522096e-01 1.6546283873313494e-01  4.8656759502835822e-01 4.7193933003351235e-01 1.6843816594964875e-01  4.9253040209070975e-01 5.1018963249466087e-01 1.7275247093244608e-01  4.9954653473766253e-01 5.5082847360985221e-01 1.7777946431902150e-01  5.1120668045067341e-01 6.1594080040341548e-01 1.8744533118879905e-01  5.4628999407240353e-01 7.2456916425337548e-01 2.3992363805400579e-01  6.0429998996268641e-01 7.0714544887478681e-01 4.2086230930553803e-01  6.0969037309666596e-01 4.2565351265795337e-01 7.7506408477263045e-01  5.2711907891542975e-01 1.4913877835487740e-01 6.6864048079253757e-01  4.7700743527313211e-01 1.6498497671977308e-01 3.3738792846525612e-01  4.9346551119144511e-01 4.0972062971970619e-01 2.6941399598833010e-01  5.3554218637622075e-01 6.5372246042317106e-01 2.7074140412822106e-01  5.5940247056757808e-01 7.3913383668160071e-01 2.6658988625532043e-01  5.6512436675132705e-01 7.6013295404321868e-01 2.6033615150005651e-01  5.7482335374718208e-01 7.7159858042331508e-01 2.7471715780917333e-01  5.9942455410779183e-01 7.6419948384401470e-01 3.4034339247763962e-01  6.2796969932427760e-01 7.0613457933563673e-01 4.6466352623227081e-01  6.4193640786035711e-01 5.9426015913149544e-01 6.2638865887544715e-01  6.3299124804698648e-01 4.4287083999141619e-01 7.7832240543391951e-01  6.0596991456771099e-01 2.8668739430040330e-01 8.6801141023360684e-01  5.7179971306782629e-01 1.7720205129407010e-01 8.3423300188488103e-01  5.4161490490536157e-01 1.2120286455066415e-01 7.3134244762733802e-01  5.2759015317249969e-01 1.0241000486972075e-01 6.6816394948920621e-01  5.2312520260053941e-01 9.7832660645557526e-02 6.4649885826425180e-01  5.3080729835529405e-01 1.0578856061355760e-01 6.8400368332768702e-01  5.5117158207494110e-01 1.3610458974479081e-01 7.6735419080471623e-01  5.8247030777797748e-01 2.0870166321624747e-01 8.4741494538359130e-01  6.1511418739371782e-01 3.3218008272493127e-01 8.4692934744962800e-01  6.3652830390439075e-01 4.8052513748535114e-01 7.4750988252472605e-01  6.3657582136466173e-01 6.1561314433034042e-01 5.9420815554148543e-01  6.0860302034773195e-01 7.0883607003557003e-01 4.3136330124955574e-01  5.5329816282422095e-01 7.0052088326310036e-01 2.9495499094801358e-01  4.9152321464779120e-01 4.5991482000354555e-01 2.1804045003482750e-01  4.6309220967969872e-01 1.8612719837245956e-01 2.2433460996812951e-01  4.7142688291289975e-01 9.3985927034702349e-02 3.2996539916569856e-01  4.8515733129303701e-01 7.6657426259817738e-02 4.2665328977730721e-01  4.8123777416838920e-01 8.1729382800221240e-02 3.9881847914838403e-01  4.8600439015474728e-01 1.5241285303018653e-01 4.0260846998855193e-01  5.3061040780803093e-01 2.1605857407950252e-01 6.5793426064625871e-01  5.6862116352363279e-01 4.9568129436187502e-01 5.7368520461321137e-01  5.0526854680495537e-01 4.5547826829287436e-01 2.9688880003633106e-01  4.6491351487022964e-01 1.5365677302287309e-01 2.5752277462796175e-01  4.7726759303020777e-01 8.4254986882294963e-02 3.7149226022005577e-01  4.8885823453165650e-01 7.8745264932033154e-02 4.4664633615432159e-01  4.8928551417393368e-01 7.9788069350260490e-02 4.4817187005905335e-01  4.8142737501007826e-01 8.0272673351354434e-02 4.0021967797918478e-01  4.6557599262813221e-01 1.0890840585260449e-01 2.8396698424525546e-01  4.8110776369228747e-01 3.4266871419507922e-01 2.4622264015428499e-01  5.5308473612494324e-01 5.7324437739508971e-01 4.2448616956527940e-01  5.6773295295685255e-01 3.5795644983749147e-01 7.1206541022591596e-01  5.0459942751305231e-01 1.6725125398689811e-01 5.2509459202693265e-01  4.6820102691341314e-01 1.2657113030278486e-01 2.9727652133920618e-01  4.6649580660891837e-01 9.9858137921267603e-02 2.9571761495855869e-01  4.7515553471117161e-01 8.3621687936295014e-02 3.5848146548178134e-01  4.7750162598764412e-01 7.8985795765544972e-02 3.7680013171877025e-01  4.6701210289703715e-01 9.8325746690327995e-02 2.9893413392131774e-01  4.6087435752726619e-01 1.8314416657035931e-01 2.1265740842005695e-01  4.8577219216456563e-01 4.2832345124009646e-01 2.0582170399318994e-01  5.3977136879984677e-01 6.7484359230594138e-01 2.6976754864069363e-01  5.9352973088661787e-01 7.3134169448857445e-01 3.7249188578425918e-01  6.2774649496250612e-01 6.8663251512481160e-01 4.9012215727586961e-01  6.4241513144536699e-01 6.1234639363391641e-01 6.0280601980251303e-01  6.4395788473604532e-01 5.3408908241457209e-01 6.9591386276908174e-01  6.3896062553279398e-01 4.6526774350007688e-01 7.6198667887258997e-01  6.3303018909057052e-01 4.1727368328980197e-01 8.0015487071909752e-01  6.2973443393593942e-01 3.9610507027437580e-01 8.1408454379216233e-01  6.3107101404704269e-01 4.0527730344025814e-01 8.0744447637114025e-01  6.3623125649846390e-01 4.4226916843679498e-01 7.8152575570773641e-01  6.4304021089440422e-01 5.0687103644598597e-01 7.2419836417299177e-01  6.4615744963933996e-01 5.8555139726672623e-01 6.3806730481420704e-01  6.4158905505243036e-01 6.6901297327958731e-01 5.3025251399134754e-01  6.2389408493316911e-01 7.3114218218072968e-01 4.2394552254794499e-01  5.9789665209461085e-01 7.6548910916314283e-01 3.3606150817229924e-01  5.7061277602004523e-01 7.6268934165729185e-01 2.7424719309231427e-01  5.4915629016933587e-01 7.3235695181826099e-01 2.3894777306076637e-01  5.3306648846958737e-01 6.8726389822079970e-01 2.2240047104358815e-01  5.1251006329186566e-01 5.9674736701456355e-01 2.1279507194633296e-01  4.8518328514663239e-01 4.0826368804508634e-01 2.1833600129506142e-01  4.6907525516814219e-01 1.9094222271222192e-01 2.6529110586637261e-01  4.9557572819523671e-01 1.1337393862356163e-01 4.9007176053752954e-01  5.7568249671807736e-01 2.3934826564336439e-01 8.3622375977529351e-01  6.2651953055382448e-01 5.7709502118614187e-01 6.3228106904544057e-01  5.9635673872333272e-01 7.4943949927042364e-01 3.4967177756236761e-01  5.4943140481285657e-01 7.3859632327864011e-01 2.3607089490460634e-01  5.2833243476287672e-01 6.7848159619805859e-01 2.0709871425073401e-01  5.1811217695151524e-01 6.3952563282604435e-01 1.9623053296916979e-01  5.1099133076050818e-01 6.0843935998746623e-01 1.8888660993073070e-01  5.0462114038859274e-01 5.7772917913186128e-01 1.8269751882986709e-01  4.9897299298888420e-01 5.4779764023415156e-01 1.7760137981472071e-01  4.9401394179963404e-01 5.1924314998265519e-01 1.7354306601456351e-01  4.8960451793693438e-01 4.9201020723741828e-01 1.7025593778127088e-01  4.8568089585506607e-01 4.6620719025163826e-01 1.6766070900388533e-01  4.8220133892148914e-01 4.4200382198286159e-01 1.6563780282693435e-01  4.7637983896677172e-01 3.9837774485303762e-01 1.6306701825322750e-01  4.7396367970514186e-01 3.7893382142200632e-01 1.6239040922280129e-01  4.7180706004643563e-01 3.6078901720144363e-01 1.6205739441586089e-01  4.6990047138955537e-01 3.4404255736442124e-01 1.6201125256922269e-01  4.6821118460692907e-01 3.2854911961663497e-01 1.6222783826443304e-01  4.6671467134997763e-01 3.1421649278902736e-01 1.6267106473745158e-01  4.6538959267555158e-01 3.0094927273779487e-01 1.6331614002115269e-01  4.6421840552879601e-01 2.8867967656572041e-01 1.6413417083067047e-01  4.6318329985948598e-01 2.7730932353015780e-01 1.6510869478331677e-01  4.6226999225859816e-01 2.6676799174376431e-01 1.6621883498758347e-01  4.6146633670508747e-01 2.5698504773783293e-01 1.6745463065990324e-01  4.6076253515455040e-01 2.4793972762479249e-01 1.6878325964408733e-01  4.6014026002480241e-01 2.3944631022045612e-01 1.7022139703871922e-01  4.5959613206033861e-01 2.3152669187046088e-01 1.7174503566122043e-01  4.5912693781962827e-01 2.2420167255763881e-01 1.7332953309088237e-01  4.5871454608290674e-01 2.1724455636184151e-01 1.7500971183762176e-01  4.5836135493438218e-01 2.1075544903140853e-01 1.7674532933212200e-01  4.5806536700216632e-01 2.0478063122060644e-01 1.7850091559628856e-01  4.5781474789565935e-01 1.9912764071536029e-01 1.8032599777984415e-01  4.5760523077791604e-01 1.9381713761342248e-01 1.8218347873177901e-01  4.5743475226784469e-01 1.8881917370413887e-01 1.8408304609637705e-01  4.5729983246820793e-01 1.8412139420360440e-01 1.8601269616241109e-01  4.5719639271695645e-01 1.7968261602979627e-01 1.8797412862742735e-01  4.5712231226609518e-01 1.7548206462873794e-01 1.8996853680573475e-01  4.5707545910084474e-01 1.7155535283963974e-01 1.9196385369745061e-01  4.5705290046032276e-01 1.6783132839982146e-01 1.9398493271651190e-01  4.5705214698312818e-01 1.6428709937233971e-01 1.9603136575946503e-01  4.5707184402326062e-01 1.6098291913373972e-01 1.9806062330417165e-01  4.5711034204117124e-01 1.5782033371650492e-01 2.0012085235062985e-01  4.5716534715962809e-01 1.5482493675661280e-01 2.0218382350629999e-01  4.5723556417207917e-01 1.5199633995403364e-01 2.0424261910120553e-01  4.5731962427983186e-01 1.4931392260636106e-01 2.0630117474612539e-01  4.5741609675717898e-01 1.4677129434751152e-01 2.0835499566494378e-01  4.5752427884487989e-01 1.4435070592316179e-01 2.1041038112246382e-01  4.5764356651084986e-01 1.4203416017892040e-01 2.1247432614690998e-01  4.5776982760645984e-01 1.3987151584364424e-01 2.1449304304778563e-01  4.5790357128384801e-01 1.3782673166868178e-01 2.1649057949848405e-01  4.5804748561057973e-01 1.3583769938383389e-01 2.1851948088740294e-01  4.5819561524428204e-01 1.3397512194785688e-01 2.2050248741364234e-01  4.5834746910822649e-01 1.3222551289035597e-01 2.2244441564063785e-01  4.5850468878825434e-01 1.3055057043473439e-01 2.2437755904677295e-01  4.5866473220525594e-01 1.2896604234570624e-01 2.2627718686497181e-01  4.5882898227853969e-01 1.2745043850923796e-01 2.2816424237854654e-01  4.5899197430148286e-01 1.2603817167649983e-01 2.2998515343104911e-01  4.5915832081025648e-01 1.2468346941328667e-01 2.3179476449376349e-01  4.5932380074623191e-01 1.2340936596833327e-01 2.3355361183721154e-01  4.5949001362935837e-01 1.2219583624149495e-01 2.3528323745831400e-01  4.5965714207376690e-01 1.2103575916765542e-01 2.3698879468161541e-01  4.5981971543632449e-01 1.1996227875497961e-01 2.3861701951898892e-01  4.5997917015271717e-01 1.1895435620606754e-01 2.4018900483208108e-01  4.6013949494177975e-01 1.1798193206746009e-01 2.4174683125239835e-01  4.6029447221862568e-01 1.1707955158409672e-01 2.4323179331866621e-01  4.6044433455749634e-01 1.1623961719538493e-01 2.4464957417683772e-01  4.6059118007499450e-01 1.1544434370419018e-01 2.4602354066333776e-01  4.6073421103969225e-01 1.1469464707980363e-01 2.4734803104692382e-01  4.6087019779354521e-01 1.1400406085658041e-01 2.4859506461419009e-01  4.5871707730328648e-01 1.2847966543448863e-01 2.2688010972089354e-01  4.7480060287768266e-01 1.8422756555201827e-01 3.0988160992826169e-01  4.6129181048448648e-01 1.1197719639831959e-01 2.5240112718683932e-01  4.8094624384057827e-01 4.3290868892028700e-01 1.6501011242748082e-01  4.6088664052161094e-01 1.1392543738853410e-01 2.4874278970594105e-01  4.9843896612563088e-01 9.6679684847650105e-02 5.0199900738634973e-01  4.5928908925871142e-01 1.2364172200113524e-01 2.3321115947941964e-01  4.5707135031870194e-01 1.6044422777648595e-01 1.9838183026283970e-01  4.6767918196842517e-01 1.2523325585223644e-01 2.9529532063675695e-01  4.8702457561396684e-01 3.0702235852499771e-01 3.0688125361249152e-01  4.5745203623197817e-01 1.4594562876303510e-01 2.0904991040100548e-01  6.1297008993798452e-01 3.4251630219660828e-01 8.3938944437822449e-01  5.9909029467661279e-01 7.6023371622350633e-01 3.4456360421026705e-01  4.5705863558857862e-01 1.6295320552670942e-01 1.9684156496493180e-01  4.9650342578007256e-01 5.3402553355151616e-01 1.7524142474143795e-01  4.6182858808797400e-01 1.0964723897250002e-01 2.5710463239736009e-01  6.3361604689782580e-01 5.7250346523738249e-01 6.4614582823551969e-01  4.7363114699558112e-01 8.4754041808406552e-02 3.4815593282596957e-01  4.6207083020735101e-01 1.0866995694364494e-01 2.5918631807003140e-01  4.5752613348773785e-01 1.9155855756830534e-01 1.8303018613720493e-01  4.6945926128995319e-01 3.3989986541892386e-01 1.6217929692192196e-01  4.5992260767187976e-01 2.3633436312656317e-01 1.7080181937537123e-01  4.6203425613282939e-01 1.0881730667370476e-01 2.5887167047406295e-01  5.3160359499928911e-01 5.5482012229105104e-01 3.4847688896559781e-01  4.6003257943320097e-01 2.3786161502370559e-01 1.7055771923727214e-01  4.6384159299961680e-01 2.8456988375136427e-01 1.6447783183500306e-01  4.6178495973465178e-01 1.0983392849584665e-01 2.5672209052919348e-01  4.5969821489310364e-01 1.2076430678055930e-01 2.3739983488170177e-01  5.2478399128329056e-01 6.6553530251857040e-01 2.0359473591395283e-01  6.2762202549695556e-01 6.1768139603758121e-01 5.8159842929512062e-01  4.5814884420478141e-01 1.3448820260805439e-01 2.1992840741956313e-01  4.6052844374397356e-01 1.1576642018120853e-01 2.4545069192858604e-01  4.8427491297198988e-01 7.8987422910989799e-02 4.1864116262955248e-01  4.5774460843310283e-01 1.9742333646187726e-01 1.8092292207798338e-01  4.6922407512916126e-01 3.3789067535126727e-01 1.6208406083973276e-01  4.6146230389545556e-01 1.1122064543300769e-01 2.5390151432694863e-01  5.9521773939748956e-01 2.7084869407353218e-01 8.5145365711613696e-01  5.7242960059405068e-01 7.5480974780794752e-01 2.8788420117091829e-01  4.6032684470187701e-01 1.1690033630663091e-01 2.4353641732710263e-01  4.5809043563296992e-01 1.3528341905606667e-01 2.1910215673902733e-01  4.9654558118331188e-01 5.3402397970933846e-01 1.7561434364814943e-01  4.6394964489561158e-01 1.5094470940483770e-01 2.4983401914678008e-01  4.5749348878780255e-01 1.4492741014559241e-01 2.0990092728816725e-01  4.6195773263253354e-01 1.0912250762796005e-01 2.5821635846905788e-01  4.5870908080418427e-01 1.2850686047384119e-01 2.2682293209495649e-01  5.3989902058874939e-01 5.3691714522645617e-01 4.0027471668354431e-01  5.6827002104137381e-01 1.8438862673708678e-01 8.1761704164320625e-01  4.5713358239634783e-01 1.7633338047674579e-01 1.8955710267834214e-01  6.1383582880700527e-01 5.1106431844869704e-01 6.9385925071428078e-01  4.5920686069183614e-01 1.2431043860099292e-01 2.3230988797370863e-01  4.6091307838309309e-01 1.1377857342513267e-01 2.4899591631690671e-01  4.5710158667918793e-01 1.7388499851888531e-01 1.9077001777091324e-01  5.2943608990267410e-01 6.1931844712658823e-01 2.7798256462524129e-01  4.5822329706523068e-01 2.0802194962146534e-01 1.7753461051334843e-01  6.1823031302791764e-01 6.2423174117949365e-01 5.6127931070027204e-01  4.6000954150815332e-01 1.1874496899034218e-01 2.4050353378438616e-01  4.5718904912