<?xml version="1.0"?>
<VTKFile type="UnstructuredGrid"  version="0.1"  >
<UnstructuredGrid>
<Piece  NumberOfPoints="4940" NumberOfCells="9650">
<Points>
<DataArray  type="Float64"  NumberOfComponents="3"  format="ascii">500 250 0  0 250 0  250 500 0  250 0 0  256.8885856082646 499.9050767557906 0  263.7719401218049 499.6203791065173 0  270.6448364229772 499.1461232471188 0  277.5020553257866 498.4826693209355 0  284.3383895508592 497.6305211460281 0  291.1486476865662 496.5903258312597 0  297.9276581259182 495.3628732847843 0  304.6702729675493 493.9490956196674 0  311.3713719748657 492.3500664368026 0  318.0258664141369 490.5670000199653 0  324.6287029687753 488.6012504015818 0  331.1748675330201 486.4543103455647 0  337.6593890460416 484.1278102064655 0  344.0773432429536 481.6235166997244 0  350.4238564271474 478.9433315480048 0  356.694109139292 476.0892900492477 0  362.88333985546 473.0635595140469 0  368.9868485575419 469.8684376402048 0  375.0000003153078 466.5063507640667 0  380.9182288257928 462.9798520074548 0  386.7370398729688 459.2916193419558 0  392.4520147244077 455.444453565817 0  398.0588135356345 451.4412761437442 0  403.5531785622926 447.285127045646 0  408.9309374414144 442.9791624087773 0  414.1880064015299 438.5266521049243 0  419.3203932989752 433.9309773069245 0  424.324200661095 429.1956279150535 0  429.1956286596235 424.3241998957182 0  433.9309780058756 419.3203925397119 0  438.5266527445345 414.1880056671062 0  442.9791630130591 408.9309367076756 0  447.2851276060475 403.5531778422888 0  451.4412766621026 398.0588128303826 0  455.4444540361634 392.4520140460735 0  459.2916197786263 386.7370392045948 0  462.9798524073514 380.9182281752347 0  466.5063511234856 374.9999996927758 0  469.8684379657123 368.9868479560565 0  473.0635598144817 362.8833392617846 0  476.0892903190255 356.6941085676214 0  478.9433317963513 350.4238558609745 0  481.6235169154735 344.0773427117675 0  484.12781039012 337.6593885555221 0  486.4543105028062 331.1748670749914 0  488.601250531677 324.6287025528375 0  490.5670001317469 318.0258660188321 0  492.3500665291326 311.3713716102628 0  493.949095695951 304.6702726271575 0  495.3628733416623 297.9276578347343 0  496.5903258712341 291.1486474470129 0  497.6305211749058 284.3383893426084 0  498.4826693388848 277.502055163614 0  499.1461232580606 270.6448362909296 0  499.6203791109319 263.7719400417897 0  499.9050767571306 256.8885855596534 0  499.9050767559877 243.1114143988867 0  499.6203791069493 236.2280598860241 0  499.1461232485393 229.3551635941651 0  498.4826693235677 222.4979446979962 0  497.6305211491849 215.6616104719064 0  496.5903258357701 208.8513523404629 0  495.3628732906988 202.0723419043604 0  493.9490956264813 195.3297270628552 0  492.3500664487791 188.6286280724281 0  490.5670000344809 181.9741336371959 0  488.6012504175981 175.3712970824318 0  486.4543103623226 168.8251325157939 0  484.1278102222298 162.3406109960628 0  481.6235167152198 155.9226567951971 0  478.9433315621651 149.5761436051346 0  476.0892900516498 143.3058908657982 0  473.063559513628 137.1166601437124 0  469.8684376406648 131.0131514433083 0  466.5063507675389 124.9999996907064 0  462.9798520124137 119.0817711822745 0  459.2916193464549 113.2629601339176 0  455.4444535642773 107.5479852733717 0  451.4412761528674 101.9411864767781 0  447.2851270583545 96.44682145403524 0  442.9791624165781 91.06906256805769 0  438.5266521117469 85.81199360630404 0  433.9309773156125 80.67960671046254 0  429.1956279150353 75.67579933888632 0  424.3241998888952 70.80437133373906 0  419.3203925223282 66.06902197812161 0  414.1880056411937 61.47334723289828 0  408.9309366751728 57.0208369601728 0  403.5531778009394 52.71487236176898 0  398.058812796452 48.55872331295853 0  392.4520140187753 44.55554594490843 0  386.7370391799677 40.70838020528396 0  380.9182281475119 37.02014757560744 0  374.9999996718656 33.49364886444181 0  368.9868479340393 30.13156202237255 0  362.8833392380029 26.93644017348339 0  356.6941085456942 23.91070967062674 0  350.4238558420009 21.0566681953261 0  344.0773426899492 18.37648307566465 0  337.6593885328982 15.87218960140942 0  331.1748670549786 13.54568949032341 0  324.6287025315056 11.39874946165088 0  318.0258660010876 9.432999863235466 0  311.3713716017894 7.649933468721599 0  304.6702726190621 6.050904302234756 0  297.9276578269805 4.637126656823085 0  291.148647441857 3.409674127905504 0  284.3383893425031 2.369478825079682 0  277.502055159398 1.517330660648639 0  270.6448362875833 0.853876741662134 0  263.7719400401456 0.3796208889774277 0  256.8885855592052 0.09492324285704967 0  243.1114143979462 0.09492324403817065 0  236.2280598850882 0.3796208931023841 0  229.3551635938215 0.8538767514891958 0  222.4979446968584 1.517330676558146 0  215.6616104703111 2.369478851036291 0  208.8513523382973 3.409674164591252 0  202.0723419066374 4.637126708856528 0  195.3297270659513 6.050904372824903 0  188.628628074828 7.649933550613184 0  181.9741336377093 9.432999965373938 0  175.3712970793675 11.39874958336037 0  168.8251325057572 13.54568964112298 0  162.340610986655 15.87218978129263 0  155.9226567874317 18.37648328793418 0  149.576143602509 21.05666843898663 0  143.3058908718157 23.91070994551046 0  137.1166601505524 26.93644048291054 0  131.0131514451933 30.13156235831508 0  124.9999996848412 33.49364923584736 0  119.0817711715717 37.0201479941652 0  113.2629601211624 40.70838066187849 0  107.5479852622251 44.55554644345162 0  101.9411864693332 48.55872385260452 0  96.44682143286516 52.71487295812284 0  91.06906254351222 57.02083760363669 0  85.81199358272519 61.4733479087879 0  80.67960667988106 66.06902271253972 0  75.67579930062769 70.80437212218331 0  70.80437129287643 75.67580015310926 0  66.06902193673014 80.67960752263491 0  61.47334718684866 85.81199441168215 0  57.02083692524275 91.0690633672404 0  52.71487232786438 96.44682224262129 0  48.55872328070024 101.941187247437 0  44.55554591578033 107.5479860232332 0  40.7083801742321 113.2629608675606 0  37.02014754791168 119.0817718975441 0  33.49364883372994 125.000000381329 0  30.13156199866361 131.0131521097709 0  26.9364401549829 137.1166607985551 0  23.91070965524918 143.3058914868915 0  21.05666818346614 149.576144185037 0  18.37648306853811 155.9226573275967 0  15.8721895918909 162.3406114925245 0  13.54568948170046 168.8251329701392 0  11.39874945301878 175.3712974960928 0  9.432999857087736 181.9741340206533 0  7.649933466342702 188.6286284076045 0  6.050904301250966 195.3297273853278 0  4.637126656808988 202.0723421730917 0  3.409674127767772 208.8513525589684 0  2.369478824521138 215.6616106615248 0  1.517330660909465 222.4979448382452 0  0.8538767414496533 229.355163714981 0  0.3796208887135322 236.2280599646376 0  0.09492324266324204 243.1114144478261 0  0.0949232442452228 256.8885856095658 0  0.3796208935834784 263.7719401236316 0  0.8538767530323526 270.6448364248016 0  1.517330679476544 277.5020553295092 0  2.369478854618649 284.3383895555228 0  3.409674170191892 291.1486476952655 0  4.6371267162381 297.9276581311522 0  6.050904381420935 304.6702729724059 0  7.649933562385399 311.3713719716595 0  9.43299997979841 318.0258664133013 0  11.3987495994252 324.6287029719946 0  13.54568965885832 331.174867545904 0  15.87218979367188 337.6593890464085 0  18.37648329843151 344.0773432384132 0  21.05666844777872 350.423856417535 0  23.91070995156048 356.6941091410045 0  26.93644048988043 362.8833398632205 0  30.13156235982007 368.9868485575877 0  33.49364924138357 375.0000003247478 0  37.0201480006036 380.9182288389023 0  40.70838066758398 386.7370398875706 0  44.55554644477201 392.4520147396792 0  48.55872386086904 398.0588135419111 0  52.71487295981296 403.5531785693063 0  57.02083760525949 408.9309374584583 0  61.47334790862246 414.1880064170849 0  66.06902271205095 419.320393319588 0  70.80437211216579 424.3242006890749 0  75.67580013809859 429.195628692521 0  80.6796075127923 433.930978054209 0  85.81199439754931 438.5266528008431 0  91.06906334717917 442.9791630582355 0  96.44682221438322 447.2851276501571 0  101.9411872243843 451.441276702356 0  107.5479859945825 455.4444540643537 0  113.2629608446994 459.2916198108319 0  119.0817718768376 462.9798524393601 0  125.0000003647644 466.5063511567065 0  131.0131521012763 469.8684379967393 0  137.1166607840049 473.0635598376539 0  143.3058914748804 476.0892903390826 0  149.5761441732679 478.9433318113714 0  155.9226573130112 481.6235169255377 0  162.3406114779862 484.1278104026658 0  168.8251329570439 486.4543105138039 0  175.3712974805475 488.601250542119 0  181.9741340135204 490.5670001408953 0  188.6286284005059 492.3500665318597 0  195.3297273788229 493.9490956972913 0  202.0723421640089 495.3628733414168 0  208.8513525529672 496.5903258712308 0  215.6616106544547 497.6305211744985 0  222.4979448327038 498.4826693384772 0  229.3551637102845 499.1461232581612 0  236.2280599621369 499.6203791111485 0  243.1114144470173 499.9050767573145 0  155.2373389820306 474.8197567317462 0  25.36256300907667 153.9152755065208 0  432.3709625126712 412.6214396304305 0  6.013151705810699 246.637913163471 0  246.6379131630491 493.986848294322 0  338.6995838441862 22.68244767887072 0  477.3175523131281 338.6995838660569 0  493.9868482700757 246.6379131399102 0  246.6201155078769 6.218451882810491 0  417.6179310263282 72.7156044707053 0  102.2232990934413 445.0100869616822 0  63.66330858966404 92.20354579482142 0  391.3105220491464 50.73522820883105 0  72.79295043967942 418.0702734974704 0  448.290574428537 108.25674339002 0  402.4604651193511 440.7462829841712 0  97.55317348421397 59.11376320116034 0  136.7376477664901 33.58246472647134 0  363.3288394375288 465.6947312928271 0  44.0678766556007 381.0860953771871 0  469.6905266180034 142.3890690100806 0  22.68244791668644 338.6995843487432 0  338.699584349159 477.317552078365 0  173.389488083762 18.6681884918202 0  483.4809734778481 179.7121987795732 0  13.50237455842738 306.4709525540879 0  305.9825168523021 487.24416992
[...]
<PointData  Vectors="f_12"> 
<DataArray  type="Float64"  Name="f_12"  NumberOfComponents="3" format="ascii">4.6336150966888434e-01 1.0410957458554945e-01 2.6994572464862771e-01  4.6251417357955249e-01 2.6953161600918074e-01 1.6598959219590392e-01  4.7561625045589240e-01 8.4284780707878496e-02 3.5922565103211301e-01  4.5986365443056870e-01 1.6285570243201389e-01 2.1741175040608407e-01  4.7589783632856530e-01 8.4080142582959261e-02 3.6113683411041814e-01  4.7615427965039031e-01 8.3899983917211027e-02 3.6287358883269755e-01  4.7640459829959003e-01 8.3729140021656989e-02 3.6456577077899321e-01  4.7663276762669055e-01 8.3577751196783290e-02 3.6610553310801541e-01  4.7684570922716518e-01 8.3440333389289412e-02 3.6754011248682805e-01  4.7704204118529886e-01 8.3316580319777733e-02 3.6886097971822357e-01  4.7722189313224289e-01 8.3205797181310381e-02 3.7006933395633695e-01  4.7738675642774620e-01 8.3106377153103400e-02 3.7117563712718366e-01  4.7753477860902344e-01 8.3018765793163016e-02 3.7216790512467696e-01  4.7766470536898814e-01 8.2943259674990041e-02 3.7303796355981211e-01  4.7776398064214426e-01 8.2886628218298147e-02 3.7370209279299321e-01  4.7787293831403654e-01 8.2824666963981705e-02 3.7443087483160692e-01  4.7792882647707863e-01 8.2793704319959291e-02 3.7480418387726344e-01  4.7798913395257148e-01 8.2760012464259791e-02 3.7520720651813722e-01  4.7802663283003527e-01 8.2739257510172595e-02 3.7545770026844638e-01  4.7804872423518802e-01 8.2727005415998520e-02 3.7560529475461185e-01  4.7805761887489612e-01 8.2721714361907089e-02 3.7566502590440343e-01  4.7803630374556405e-01 8.2733482416379886e-02 3.7552273718369855e-01  4.7799550677109021e-01 8.2756051010010476e-02 3.7525032767711824e-01  4.7795204663682311e-01 8.2779646748545696e-02 3.7496048764468515e-01  4.7788916353318894e-01 8.2814322611051358e-02 3.7454068160951309e-01  4.7780049319535522e-01 8.2864170572242143e-02 3.7394808038072896e-01  4.7768345723522349e-01 8.2931040570465339e-02 3.7316518253949060e-01  4.7756566076848883e-01 8.2998814000188284e-02 3.7237693084962331e-01  4.7743189107175038e-01 8.3077035342702957e-02 3.7148098731114843e-01  4.7726433867553064e-01 8.3177357547521369e-02 3.7035723470214377e-01  4.7709164356694767e-01 8.3282629039826972e-02 3.6919781649751643e-01  4.7689771422181149e-01 8.3403772992514572e-02 3.6789400515189224e-01  4.7668503943584128e-01 8.3540006886392473e-02 3.6646199089965037e-01  4.7646296058845411e-01 8.3685706467642992e-02 3.6496454771073372e-01  4.7620833266117141e-01 8.3858073011914155e-02 3.6324434163531844e-01  4.7594036074169394e-01 8.4045205094847183e-02 3.6143036767815184e-01  4.7566820214632871e-01 8.4240662172636732e-02 3.5958483498327271e-01  4.7536589292109538e-01 8.4465750797513936e-02 3.5752998152956189e-01  4.7503249650038643e-01 8.4723991660416054e-02 3.5525769444949684e-01  4.7469207040221462e-01 8.4997483779080382e-02 3.5293165959033818e-01  4.7434713631774666e-01 8.5285059905909955e-02 3.5056866107808454e-01  4.7397318144680672e-01 8.5610573770886225e-02 3.4799867732322282e-01  4.7356998036757975e-01 8.5976925335885079e-02 3.4521869905882108e-01  4.7315691606849475e-01 8.6369718141944968e-02 3.4236057936899089e-01  4.7272037228906627e-01 8.6805417595156906e-02 3.3932809622735738e-01  4.7226503622604493e-01 8.7282248382858280e-02 3.3615235881801947e-01  4.7179376317574029e-01 8.7801574466249352e-02 3.3285084372447804e-01  4.7130880631203398e-01 8.8364687273497597e-02 3.2943719257363735e-01  4.7078860974344444e-01 8.9004995819829860e-02 3.2575528060378778e-01  4.7025608766146343e-01 8.9698035973844029e-02 3.2196524726244130e-01  4.6970828368122403e-01 9.0457091481740470e-02 3.1804106160309203e-01  4.6914003252956887e-01 9.1293067489779223e-02 3.1394377477329521e-01  4.6855983188458339e-01 9.2205595428641901e-02 3.0972821623789787e-01  4.6795181845414052e-01 9.3229720411202116e-02 3.0527359787144143e-01  4.6733148612554615e-01 9.4351969777995953e-02 3.0068702096979744e-01  4.6670289236696355e-01 9.5577438159554329e-02 2.9599177908472907e-01  4.6605470633385909e-01 9.6944849318276557e-02 2.9109438464414383e-01  4.6539771711760736e-01 9.8451982719692591e-02 2.8606499632626792e-01  4.6473381802058045e-01 1.0010445827821565e-01 2.8091454374396480e-01  4.6407578957235956e-01 1.0187869869990684e-01 2.7573477072536207e-01  4.6269041938623218e-01 1.0632981569861610e-01 2.6444452388098683e-01  4.6202036651414952e-01 1.0885347073815588e-01 2.5878242263899592e-01  4.6136503446854904e-01 1.1163967970583812e-01 2.5307098149261298e-01  4.6070786789072354e-01 1.1481216360978236e-01 2.4713723850873442e-01  4.6007718916886992e-01 1.1834520506482839e-01 2.4117204008429272e-01  4.5947236731629015e-01 1.2229088861085675e-01 2.3514266301324796e-01  4.5890948934530695e-01 1.2672547810639301e-01 2.2910421615832310e-01  4.5839233255133227e-01 1.3172094897356035e-01 2.2303753837493034e-01  4.5793816239407181e-01 1.3732955904951644e-01 2.1701695576451602e-01  4.5756090842744851e-01 1.4363430467060159e-01 2.1107675213602869e-01  4.5727233265497758e-01 1.5087496549092441e-01 2.0514390135330021e-01  4.5709959991869015e-01 1.5901076921304250e-01 1.9940157011727555e-01  4.5706193926993272e-01 1.6827779810173760e-01 1.9381646474201736e-01  4.5719234838811240e-01 1.7895045607065177e-01 1.8841399743785836e-01  4.5752550201028563e-01 1.9121019260748484e-01 1.8327158463845805e-01  4.5810790697775622e-01 2.0531074945246278e-01 1.7848907823085960e-01  4.5898704658183448e-01 2.2158712081847134e-01 1.7410382887101081e-01  4.6023944550937856e-01 2.4052111853125741e-01 1.7022451052272891e-01  4.6195607035472025e-01 2.6243686129594007e-01 1.6705110247837052e-01  4.6407739309202539e-01 2.8751357128077221e-01 1.6426993141097973e-01  4.6721557733458802e-01 3.2187934723040978e-01 1.6050793997254353e-01  4.8233031490480477e-01 4.5196019477076871e-01 1.7056782922354818e-01  5.4263453368730041e-01 6.7531650598828097e-01 2.7400595782290266e-01  6.0351647856296842e-01 5.7912888625608716e-01 5.8835000682282768e-01  5.6183719215348438e-01 2.4491930804005116e-01 7.8043700837670837e-01  4.9266130610980924e-01 1.6200907247357929e-01 4.4819213898415017e-01  4.9999170119460928e-01 3.7757087596723010e-01 3.3863316502190771e-01  5.6002133723164849e-01 6.2555122249409745e-01 4.0700446945339580e-01  6.0813870629278011e-01 6.9610267067700260e-01 4.4893871016307624e-01  6.2475471613719924e-01 7.1708475324343635e-01 4.4539886973918386e-01  6.2040705699589083e-01 7.4015446769025983e-01 4.0746690521574291e-01  6.0663282793063156e-01 7.6926728741168626e-01 3.4669134756153425e-01  6.0558335593523960e-01 7.7684164337723272e-01 3.3442247164651517e-01  6.2702491274084982e-01 7.0174974545501090e-01 4.6810730465790712e-01  6.3327029376643451e-01 5.1741829812748064e-01 7.0342465070900173e-01  6.0308130961170858e-01 2.9447549413986035e-01 8.5997179056010575e-01  5.5284461312837430e-01 1.4437878309777447e-01 7.7752652489084662e-01  5.0821292611937219e-01 8.9356662867031741e-02 5.6905514094635545e-01  4.8093346596442366e-01 8.1908990233736517e-02 4.0129996631491166e-01  4.6682309127929528e-01 9.4210581205607560e-02 3.0248332418976626e-01  4.6043041023194420e-01 1.1883862414548832e-01 2.4720950950308904e-01  4.5823553731579247e-01 1.3355898188582169e-01 2.2495133745393173e-01  4.5806086042392791e-01 1.3624999402751675e-01 2.2264155903121563e-01  4.5935362480088243e-01 1.2198148017404593e-01 2.3902148481648056e-01  4.6488745147269900e-01 1.0110389804335193e-01 2.8620905308529232e-01  4.7879687905687279e-01 8.4287900756842282e-02 3.8573749850697742e-01  5.0703799986631626e-01 8.8268396706344496e-02 5.6117725666807050e-01  5.5345533902666555e-01 1.4374378185022649e-01 7.7716549740031160e-01  6.0453934863240122e-01 2.8950613938989100e-01 8.5922432164877038e-01  6.3589064834846076e-01 4.7606117537816089e-01 7.5075770285969923e-01  6.3900124438387740e-01 6.2703826604960688e-01 5.8202852383000547e-01  6.1252118528309629e-01 7.1303935226774029e-01 4.3354483146194367e-01  5.5946358437003252e-01 7.0038243366534547e-01 3.1723939546198399e-01  4.9448569629567385e-01 4.5848181419173833e-01 2.3843731453778319e-01  4.6183212150426511e-01 1.7295931263912373e-01 2.2532427165742161e-01  4.5937508355462364e-01 1.0714514239805466e-01 2.4685551556948754e-01  4.7822110482959751e-01 3.4690267955014958e-01 2.1358915629603389e-01  5.1128170443916676e-01 5.1035903570168473e-01 2.8307799738111877e-01  5.2941343455689127e-01 3.2961654707170940e-01 5.4838171474937314e-01  5.5856301624029592e-01 2.9394815203767843e-01 7.2638480788811866e-01  5.7401483079605220e-01 4.9810371794254621e-01 5.8884109982116750e-01  5.1243608715839817e-01 4.6411949777875933e-01 3.3353333065590585e-01  4.6222894338949810e-01 1.6185651430955605e-01 2.3862742631051265e-01  4.5930040050591009e-01 1.2796883057076730e-01 2.3841438895186778e-01  4.9387814693343263e-01 3.8461798058648811e-01 2.8839764356204900e-01  5.6428217275092918e-01 5.2185501729927619e-01 5.2779089874287333e-01  5.5723072339407054e-01 2.8016413820622083e-01 7.3234050499726155e-01  5.1413483941969462e-01 2.1406484738411627e-01 5.5308760925274836e-01  5.1130620502228741e-01 4.0951962251030011e-01 3.7176152811749957e-01  4.9364322892976364e-01 4.6838210706846956e-01 2.1278471470176405e-01  4.6701256220420179e-01 2.8418473013396517e-01 1.8824115891336068e-01  4.5845681637606689e-01 1.4792434575789057e-01 2.1681548692197175e-01  4.5776164908952072e-01 1.1541787387182671e-01 2.3183534874227441e-01  4.6381722496334771e-01 2.1742963510185062e-01 2.1253983189163866e-01  5.0529841597753067e-01 5.2653592486206902e-01 2.4379569986769103e-01  5.6981616585026662e-01 7.1673972000115427e-01 3.3136861615843061e-01  6.1602326611185676e-01 7.1244480818270639e-01 4.3950465299666208e-01  6.3911620684830006e-01 6.4478853127367364e-01 5.5933465687742101e-01  6.4358708403063203e-01 5.4469532629153428e-01 6.8469388617779370e-01  6.3208332219795671e-01 4.2173312814284764e-01 7.9612046910175271e-01  6.0734354124406309e-01 2.9232979516269403e-01 8.5852470396464142e-01  5.7580283078337502e-01 1.8817964797228157e-01 8.3714840456062567e-01  5.4692949613029984e-01 1.2784484244712191e-01 7.5293592429676248e-01  5.2748870074798337e-01 1.0153199180524056e-01 6.6909370842300742e-01  5.1805612845120674e-01 9.2463247832642204e-02 6.2180833172666461e-01  5.1768135488562839e-01 9.2261582630054101e-02 6.1996138937908429e-01  5.2615296004241330e-01 1.0101182029550161e-01 6.6238075683691655e-01  5.4437521044264903e-01 1.2475281896676989e-01 7.4323225051007824e-01  5.7100301008902021e-01 1.7734349694546833e-01 8.3013106530108371e-01  6.0498630603654968e-01 2.8061004378589466e-01 8.7282944216835789e-01  6.3218399498199795e-01 4.3359812084547100e-01 7.8961050470685412e-01  6.4111863644387990e-01 5.8479427135441497e-01 6.3670022288722361e-01  6.2621839638634680e-01 7.0240900082685653e-01 4.6627779358677263e-01  5.9534420484373995e-01 7.6478049498503775e-01 3.3118505412429100e-01  5.7260889250902958e-01 7.7350091841405411e-01 2.6707608067388039e-01  5.7467192651947663e-01 7.7331631758341191e-01 2.7240742784054428e-01  5.8866128297776976e-01 7.6636385889964176e-01 3.1455002345952571e-01  5.8955536538002740e-01 7.4493578201806054e-01 3.4484360235179462e-01  5.5866678883938570e-01 6.9176758313081477e-01 3.2259439136663454e-01  5.0580025257494765e-01 4.8749593830457855e-01 2.8079878486525350e-01  4.7701848484479781e-01 2.0908863726377311e-01 3.0906621957615821e-01  5.1035077354564939e-01 1.3789503580071910e-01 5.7881436356644234e-01  5.9621276955371150e-01 3.6244421974170643e-01 8.0599238724215871e-01  5.9960352612046686e-01 6.6631058275854282e-01 4.6530118111432905e-01  5.3705440531522608e-01 6.8570739379221091e-01 2.4398708612444675e-01  4.9186752712643794e-01 5.1108950617666460e-01 1.7267403063429232e-01  4.7855351550196845e-01 4.1688015143125928e-01 1.6285601564988675e-01  4.7403171381826881e-01 3.7975438141863010e-01 1.6232465403823718e-01  4.7103946280156161e-01 3.5385069700770144e-01 1.6222021851964208e-01  4.6831989493378723e-01 3.2945677840172677e-01 1.6231494121622791e-01  4.6601825912084249e-01 3.0719754668000793e-01 1.6308996202564707e-01  4.6410472773831479e-01 2.8734175830639314e-01 1.6433019966212714e-01  4.6120488938629778e-01 2.5359454588234426e-01 1.6799681149959464e-01  4.6013762828014937e-01 2.3932550057349339e-01 1.7030052635020809e-01  4.5927030145091480e-01 2.2640082760846994e-01 1.7289254128085554e-01  4.5858185797246415e-01 2.1478435957746331e-01 1.7569568836491109e-01  4.5804717696047809e-01 2.0429177469191723e-01 1.7869783807485776e-01  4.5764521047706003e-01 1.9479533677049105e-01 1.8186681543369948e-01  4.5735899436134048e-01 1.8618042739672258e-01 1.8518331030715887e-01  4.5717309099219650e-01 1.7835785530313422e-01 1.8861832744655072e-01  4.5707482146321515e-01 1.7123117023442641e-01 1.9216142528964086e-01  4.5705285700326370e-01 1.6472824903715330e-01 1.9579300371173303e-01  4.5709862263668749e-01 1.5878319479280856e-01 1.9950571614602727e-01  4.5720100703629568e-01 1.5335886101220073e-01 2.0325752985625295e-01  4.5735631957670458e-01 1.4833513392452599e-01 2.0709954072101472e-01  4.5755688714457965e-01 1.4370875895624119e-01 2.1098942301495985e-01  4.5779542175922433e-01 1.3947945931682984e-01 2.1488495077861508e-01  4.5807358819640226e-01 1.3551251154242108e-01 2.1887584233930743e-01  4.5838230544568442e-01 1.3185304286566532e-01 2.2288162757215807e-01  4.5871297075285894e-01 1.2851678960146323e-01 2.2684136852178943e-01  4.5907157706527552e-01 1.2539678564130183e-01 2.3085423707428171e-01  4.5944989938535014e-01 1.2249397105287455e-01 2.3486944185216435e-01  4.5984803017587561e-01 1.1979091340245365e-01 2.3889801400243210e-01  4.6026229235323990e-01 1.1727615296972010e-01 2.4292387967704868e-01  4.6069192987980151e-01 1.1492374046721172e-01 2.4695757563703860e-01  4.6113619304368836e-01 1.1272074471813269e-01 2.5100188157246517e-01  4.6158722529701801e-01 1.1068105964249934e-01 2.5499957030066878e-01  4.6204968604806113e-01 1.0876680818872231e-01 2.5900172321879789e-01  4.6252270372789522e-01 1.0696358041445361e-01 2.6301082275315874e-01  4.6299631320608681e-01 1.0529904234202657e-01 2.6694837240098640e-01  4.6348058515847579e-01 1.0372349215216352e-01 2.7090592165773497e-01  4.6396897609211057e-01 1.0224636221115532e-01 2.7483697447113359e-01  4.6445922847314747e-01 1.0086649117330215e-01 2.7872736997873560e-01  4.6495192614493575e-01 9.9572175691992212e-02 2.8258746783905503e-01  4.6544568671173558e-01 9.8358904844755707e-02 2.8641082412634433e-01  4.6594162549916457e-01 9.7217252029387594e-02 2.9020966096364414e-01  4.6644119556492342e-01 9.6137613525465335e-02 2.9399855812174064e-01  4.6693156925042500e-01 9.5140916269295411e-02 2.9768376470860414e-01  4.6741800264636901e-01 9.4209983013936044e-02 3.0130823648531629e-01  4.6791279675436798e-01 9.3316282332936040e-02 3.0496636882873485e-01  4.6839753649390165e-01 9.2489635046743235e-02 3.0852369405971541e-01  4.6887310288438472e-01 9.1723086865997186e-02 3.1198953359577958e-01  4.6934708852149604e-01 9.0998998808182671e-02 3.1542218319926546e-01  4.6981351680223749e-01 9.0322915051241653e-02 3.1878025802727339e-01  4.7027709106014332e-01 8.9685681010418891e-02 3.2209859910173727e-01  4.7072524378155328e-01 8.9099299352845190e-02 3.2529037879465894e-01  4.7117059135821987e-01 8.8545517491563336e-02 3.2844595428290541e-01  4.7160383487395185e-01 8.8031802533042755e-02 3.3150191737872176e-01  4.7203009684967540e-01 8.7549617033932339e-02 3.3449567128689167e-01  4.7245046726568735e-01 8.7095738299566600e-02 3.3743573643787511e-01  4.7285200427065105e-01 8.6682236799196372e-02 3.4023248170817511e-01  4.7323989014810608e-01 8.6299407734805045e-02 3.4292484229976883e-01  4.7362406971572052e-01 8.5935917398230643e-02 3.4558237906330747e-01  4.7399047418367835e-01 8.5603676253586225e-02 3.4810856289544467e-01  4.7434036249082423e-01 8.5299195090970670e-02 3.5051331139104908e-01  4.7467939151303667e-01 8.5015124426395625e-02 3.5283707202393566e-01  4.7500611909350704e-01 8.4751496067825852e-02 3.5507037438782407e-01  4.7531386370552903e-01 8.4512096039941892e-02 3.5716867087914739e-01  4.6996513839552040e-01 9.0112953033288021e-02 3.1986618369335845e-01  5.9422500560694469e-01 6.8438555153649938e-01 4.3555706381601628e-01  4.7620337130033114e-01 8.3863063057964718e-02 3.6320965316281534e-01  4.6343875725368716e-01 2.8000624708371702e-01 1.6496852730286710e-01  4.7535425724999947e-01 8.4482511710080768e-02 3.5744288720467887e-01  4.6462169095085043e-01 2.0877276263069625e-01 2.2073691835317116e-01  4.7140957952046170e-01 8.8249995436041895e-02 3.3014476038203916e-01  4.6292353522098173e-01 1.0551409024956744e-01 2.6637883107819227e-01  4.6750410888258576e-01 2.8468411734071675e-01 1.9300363159373368e-01  6.2180561528687039e-01 6.3297034477429992e-01 5.5523169660697436e-01  4.6561570508096917e-01 9.7962478507988851e-02 2.8771554122763188e-01  5.0460907140536093e-01 9.9324675465219267e-02 5.3946260347196795e-01  6.2898186739829554e-01 5.1764951038081886e-01 7.1059898196054305e-01  4.6271404503589292e-01 1.0628008181687944e-01 2.6460711217789884e-01  5.2272264615218722e-01 6.2841015232143371e-01 2.3538276761280527e-01  4.7738524247141606e-01 8.3106530603192272e-02 3.7116701937576568e-01  5.9624130036852097e-01 2.6477545942753378e-01 8.5928047653711459e-01  4.6009254357910939e-01 1.7349633328277267e-01 2.1383180046684006e-01  4.7791573064769943e-01 8.2801190509702666e-02 3.7471682850106602e-01  4.5962838478540580e-01 1.2125455874979156e-01 2.3669039988845403e-01  4.5860454885209645e-01 2.1486074802779567e-01 1.7581418976518565e-01  4.5742951580245361e-01 1.4648334195543614e-01 2.0861258983990910e-01  4.7784425806473668e-01 8.2842163505071162e-02 3.7423836233520535e-01  5.2378251401622222e-01 1.8820610062818530e-01 6.3049969197776423e-01  4.5734473349319305e-01 1.4876421468031240e-01 2.0680095048684990e-01  4.5713159064523706e-01 1.7571528023875563e-01 1.8990222243641622e-01  4.7731971362614434e-01 8.3148018751929953e-02 3.7072498160254957e-01  4.7255595310693604e-01 8.6986598149822750e-02 3.3817052949817034e-01  5.8085897953206678e-01 6.9159767444708231e-01 3.8659342903680682e-01  6.0735369276777873e-01 3.1368306548747338e-01 8.5194816576354937e-01  4.6812127434791745e-01 9.2940952006158317e-02 3.0651622775255577e-01  4.7446292392641887e-01 8.5190056828142763e-02 3.5136075577878456e-01  4.7692164826351857e-01 2.8835717129749133e-01 2.5597531437837734e-01  4.5907709888997211e-01 1.2534777004810024e-01 2.3093318694512135e-01  4.5835746589579657e-01 2.1052904518995702e-01 1.7687337261847888e-01  4.7662585430428756e-01 8.3583834037355920e-02 3.6605790346278411e-01  4.8236978738460329e-01 9.7144651047698954e-02 4.0072764088266855e-01  6.1896696800454865e-01 6.9525775251616406e-01 4.6629114945292516e-01  4.7406957593097698e-01 8.5535388700535495e-02 3.4865174688755673e-01  4.6805867117373451e-01 9.3062929672196287e-02 3.0603900829272740e-01  4.7256891358123426e-01 3.6731939059655166e-01 1.6218692295107906e-01  5.4050518132825309e-01 6.4447044171842027e-01 3.0623518818306117e-01  4.6567205969680631e-01 9.7816074155218605e-02 2.8816779420608901e-01  4.7766937942866444e-01 8.2941073351357947e-02 3.7306960919768811e-01  4.6982496003211516e-01 9.0295600535031009e-02 3.1887611470177935e-01  5.4051529865785819e-01 2.6346661626648799e-01 6.6523293826407526e-01  4.7940730852528990e-01 9.8260127970333941e-02 3.8105951003835659e-01  4.6090747971197982e-01 1.1381360527407840e-01 2.4895733073190160e-01  4.9135676633002723e-01 2.7819069628039217e-01 3.5988377745269257e-01  4.7130151418128674e-01 8.8390030734350825e-02 3.2936940633992884e-01  4.7535217355693266e-01 8.4478290676768125e-02 3.5743508017266234e-01  4.6131970854060805e-01 1.1187454925955229e-01 2.5263677547136082e-01  6.3233752713702363e-01 6.3110195102218170e-01 5.7061070121206503e-01  4.5853065716122926e-01 1.3030388788564151e-01 2.2468722988807502e-01  4.8528703495720277e-01 1.6689364244067192e-01 3.9143232235968567e-01  4.7322730971040944e-01 8.6303939653418579e-02 3.4284669514574706e-01  4.6414415261