<?xml version="1.0"?>
<VTKFile type="UnstructuredGrid"  version="0.1"  >
<UnstructuredGrid>
<Piece  NumberOfPoints="4940" NumberOfCells="9650">
<Points>
<DataArray  type="Float64"  NumberOfComponents="3"  format="ascii">500 250 0  0 250 0  250 500 0  250 0 0  256.8885856082646 499.9050767557906 0  263.7719401218049 499.6203791065173 0  270.6448364229772 499.1461232471188 0  277.5020553257866 498.4826693209355 0  284.3383895508592 497.6305211460281 0  291.1486476865662 496.5903258312597 0  297.9276581259182 495.3628732847843 0  304.6702729675493 493.9490956196674 0  311.3713719748657 492.3500664368026 0  318.0258664141369 490.5670000199653 0  324.6287029687753 488.6012504015818 0  331.1748675330201 486.4543103455647 0  337.6593890460416 484.1278102064655 0  344.0773432429536 481.6235166997244 0  350.4238564271474 478.9433315480048 0  356.694109139292 476.0892900492477 0  362.88333985546 473.0635595140469 0  368.9868485575419 469.8684376402048 0  375.0000003153078 466.5063507640667 0  380.9182288257928 462.9798520074548 0  386.7370398729688 459.2916193419558 0  392.4520147244077 455.444453565817 0  398.0588135356345 451.4412761437442 0  403.5531785622926 447.285127045646 0  408.9309374414144 442.9791624087773 0  414.1880064015299 438.5266521049243 0  419.3203932989752 433.9309773069245 0  424.324200661095 429.1956279150535 0  429.1956286596235 424.3241998957182 0  433.9309780058756 419.3203925397119 0  438.5266527445345 414.1880056671062 0  442.9791630130591 408.9309367076756 0  447.2851276060475 403.5531778422888 0  451.4412766621026 398.0588128303826 0  455.4444540361634 392.4520140460735 0  459.2916197786263 386.7370392045948 0  462.9798524073514 380.9182281752347 0  466.5063511234856 374.9999996927758 0  469.8684379657123 368.9868479560565 0  473.0635598144817 362.8833392617846 0  476.0892903190255 356.6941085676214 0  478.9433317963513 350.4238558609745 0  481.6235169154735 344.0773427117675 0  484.12781039012 337.6593885555221 0  486.4543105028062 331.1748670749914 0  488.601250531677 324.6287025528375 0  490.5670001317469 318.0258660188321 0  492.3500665291326 311.3713716102628 0  493.949095695951 304.6702726271575 0  495.3628733416623 297.9276578347343 0  496.5903258712341 291.1486474470129 0  497.6305211749058 284.3383893426084 0  498.4826693388848 277.502055163614 0  499.1461232580606 270.6448362909296 0  499.6203791109319 263.7719400417897 0  499.9050767571306 256.8885855596534 0  499.9050767559877 243.1114143988867 0  499.6203791069493 236.2280598860241 0  499.1461232485393 229.3551635941651 0  498.4826693235677 222.4979446979962 0  497.6305211491849 215.6616104719064 0  496.5903258357701 208.8513523404629 0  495.3628732906988 202.0723419043604 0  493.9490956264813 195.3297270628552 0  492.3500664487791 188.6286280724281 0  490.5670000344809 181.9741336371959 0  488.6012504175981 175.3712970824318 0  486.4543103623226 168.8251325157939 0  484.1278102222298 162.3406109960628 0  481.6235167152198 155.9226567951971 0  478.9433315621651 149.5761436051346 0  476.0892900516498 143.3058908657982 0  473.063559513628 137.1166601437124 0  469.8684376406648 131.0131514433083 0  466.5063507675389 124.9999996907064 0  462.9798520124137 119.0817711822745 0  459.2916193464549 113.2629601339176 0  455.4444535642773 107.5479852733717 0  451.4412761528674 101.9411864767781 0  447.2851270583545 96.44682145403524 0  442.9791624165781 91.06906256805769 0  438.5266521117469 85.81199360630404 0  433.9309773156125 80.67960671046254 0  429.1956279150353 75.67579933888632 0  424.3241998888952 70.80437133373906 0  419.3203925223282 66.06902197812161 0  414.1880056411937 61.47334723289828 0  408.9309366751728 57.0208369601728 0  403.5531778009394 52.71487236176898 0  398.058812796452 48.55872331295853 0  392.4520140187753 44.55554594490843 0  386.7370391799677 40.70838020528396 0  380.9182281475119 37.02014757560744 0  374.9999996718656 33.49364886444181 0  368.9868479340393 30.13156202237255 0  362.8833392380029 26.93644017348339 0  356.6941085456942 23.91070967062674 0  350.4238558420009 21.0566681953261 0  344.0773426899492 18.37648307566465 0  337.6593885328982 15.87218960140942 0  331.1748670549786 13.54568949032341 0  324.6287025315056 11.39874946165088 0  318.0258660010876 9.432999863235466 0  311.3713716017894 7.649933468721599 0  304.6702726190621 6.050904302234756 0  297.9276578269805 4.637126656823085 0  291.148647441857 3.409674127905504 0  284.3383893425031 2.369478825079682 0  277.502055159398 1.517330660648639 0  270.6448362875833 0.853876741662134 0  263.7719400401456 0.3796208889774277 0  256.8885855592052 0.09492324285704967 0  243.1114143979462 0.09492324403817065 0  236.2280598850882 0.3796208931023841 0  229.3551635938215 0.8538767514891958 0  222.4979446968584 1.517330676558146 0  215.6616104703111 2.369478851036291 0  208.8513523382973 3.409674164591252 0  202.0723419066374 4.637126708856528 0  195.3297270659513 6.050904372824903 0  188.628628074828 7.649933550613184 0  181.9741336377093 9.432999965373938 0  175.3712970793675 11.39874958336037 0  168.8251325057572 13.54568964112298 0  162.340610986655 15.87218978129263 0  155.9226567874317 18.37648328793418 0  149.576143602509 21.05666843898663 0  143.3058908718157 23.91070994551046 0  137.1166601505524 26.93644048291054 0  131.0131514451933 30.13156235831508 0  124.9999996848412 33.49364923584736 0  119.0817711715717 37.0201479941652 0  113.2629601211624 40.70838066187849 0  107.5479852622251 44.55554644345162 0  101.9411864693332 48.55872385260452 0  96.44682143286516 52.71487295812284 0  91.06906254351222 57.02083760363669 0  85.81199358272519 61.4733479087879 0  80.67960667988106 66.06902271253972 0  75.67579930062769 70.80437212218331 0  70.80437129287643 75.67580015310926 0  66.06902193673014 80.67960752263491 0  61.47334718684866 85.81199441168215 0  57.02083692524275 91.0690633672404 0  52.71487232786438 96.44682224262129 0  48.55872328070024 101.941187247437 0  44.55554591578033 107.5479860232332 0  40.7083801742321 113.2629608675606 0  37.02014754791168 119.0817718975441 0  33.49364883372994 125.000000381329 0  30.13156199866361 131.0131521097709 0  26.9364401549829 137.1166607985551 0  23.91070965524918 143.3058914868915 0  21.05666818346614 149.576144185037 0  18.37648306853811 155.9226573275967 0  15.8721895918909 162.3406114925245 0  13.54568948170046 168.8251329701392 0  11.39874945301878 175.3712974960928 0  9.432999857087736 181.9741340206533 0  7.649933466342702 188.6286284076045 0  6.050904301250966 195.3297273853278 0  4.637126656808988 202.0723421730917 0  3.409674127767772 208.8513525589684 0  2.369478824521138 215.6616106615248 0  1.517330660909465 222.4979448382452 0  0.8538767414496533 229.355163714981 0  0.3796208887135322 236.2280599646376 0  0.09492324266324204 243.1114144478261 0  0.0949232442452228 256.8885856095658 0  0.3796208935834784 263.7719401236316 0  0.8538767530323526 270.6448364248016 0  1.517330679476544 277.5020553295092 0  2.369478854618649 284.3383895555228 0  3.409674170191892 291.1486476952655 0  4.6371267162381 297.9276581311522 0  6.050904381420935 304.6702729724059 0  7.649933562385399 311.3713719716595 0  9.43299997979841 318.0258664133013 0  11.3987495994252 324.6287029719946 0  13.54568965885832 331.174867545904 0  15.87218979367188 337.6593890464085 0  18.37648329843151 344.0773432384132 0  21.05666844777872 350.423856417535 0  23.91070995156048 356.6941091410045 0  26.93644048988043 362.8833398632205 0  30.13156235982007 368.9868485575877 0  33.49364924138357 375.0000003247478 0  37.0201480006036 380.9182288389023 0  40.70838066758398 386.7370398875706 0  44.55554644477201 392.4520147396792 0  48.55872386086904 398.0588135419111 0  52.71487295981296 403.5531785693063 0  57.02083760525949 408.9309374584583 0  61.47334790862246 414.1880064170849 0  66.06902271205095 419.320393319588 0  70.80437211216579 424.3242006890749 0  75.67580013809859 429.195628692521 0  80.6796075127923 433.930978054209 0  85.81199439754931 438.5266528008431 0  91.06906334717917 442.9791630582355 0  96.44682221438322 447.2851276501571 0  101.9411872243843 451.441276702356 0  107.5479859945825 455.4444540643537 0  113.2629608446994 459.2916198108319 0  119.0817718768376 462.9798524393601 0  125.0000003647644 466.5063511567065 0  131.0131521012763 469.8684379967393 0  137.1166607840049 473.0635598376539 0  143.3058914748804 476.0892903390826 0  149.5761441732679 478.9433318113714 0  155.9226573130112 481.6235169255377 0  162.3406114779862 484.1278104026658 0  168.8251329570439 486.4543105138039 0  175.3712974805475 488.601250542119 0  181.9741340135204 490.5670001408953 0  188.6286284005059 492.3500665318597 0  195.3297273788229 493.9490956972913 0  202.0723421640089 495.3628733414168 0  208.8513525529672 496.5903258712308 0  215.6616106544547 497.6305211744985 0  222.4979448327038 498.4826693384772 0  229.3551637102845 499.1461232581612 0  236.2280599621369 499.6203791111485 0  243.1114144470173 499.9050767573145 0  155.2373389820306 474.8197567317462 0  25.36256300907667 153.9152755065208 0  432.3709625126712 412.6214396304305 0  6.013151705810699 246.637913163471 0  246.6379131630491 493.986848294322 0  338.6995838441862 22.68244767887072 0  477.3175523131281 338.6995838660569 0  493.9868482700757 246.6379131399102 0  246.6201155078769 6.218451882810491 0  417.6179310263282 72.7156044707053 0  102.2232990934413 445.0100869616822 0  63.66330858966404 92.20354579482142 0  391.3105220491464 50.73522820883105 0  72.79295043967942 418.0702734974704 0  448.290574428537 108.25674339002 0  402.4604651193511 440.7462829841712 0  97.55317348421397 59.11376320116034 0  136.7376477664901 33.58246472647134 0  363.3288394375288 465.6947312928271 0  44.0678766556007 381.0860953771871 0  469.6905266180034 142.3890690100806 0  22.68244791668644 338.6995843487432 0  338.699584349159 477.317552078365 0  173.389488083762 18.6681884918202 0  483.4809734778481 179.7121987795732 0  13.50237455842738 306.4709525540879 0  305.9825168523021 487.24416992
[...]
<PointData  Vectors="f_12"> 
<DataArray  type="Float64"  Name="f_12"  NumberOfComponents="3" format="ascii">5.6244869016096632e-01 5.2172838886235051e-01 5.1827465440057130e-01  5.7630670576420473e-01 4.5898881330559493e-01 6.0202223191947613e-01  5.5347653987243695e-01 5.2989311899562430e-01 4.8612313383446504e-01  5.0836809523488269e-01 4.2513426337844545e-01 3.8651405544574241e-01  5.5329533337933168e-01 5.2993541608711259e-01 4.8554337621413990e-01  5.5313059834417033e-01 5.2997014758539618e-01 4.8501818296447780e-01  5.5296926081378406e-01 5.3000061828163048e-01 4.8450572261355457e-01  5.5282194057532874e-01 5.3002569990294357e-01 4.8403918105656057e-01  5.5268388779816535e-01 5.3004651027844596e-01 4.8360341996917278e-01  5.5255596236454463e-01 5.3006368657886793e-01 4.8320067122600041e-01  5.5243796577143134e-01 5.3007765521309835e-01 4.8283017106875092e-01  5.5232880380830385e-01 5.3008887670256699e-01 4.8248831741724357e-01  5.5222963020516980e-01 5.3009765940657605e-01 4.8217848113566636e-01  5.5214123565296613e-01 5.3010431566522165e-01 4.8190297458364140e-01  5.5207186994243906e-01 5.3010888125918854e-01 4.8168706280855067e-01  5.5199517580789292e-01 5.3011286725896944e-01 4.8144905113489428e-01  5.5195195779547646e-01 5.3011481026395002e-01 4.8131501312416375e-01  5.5190481464622687e-01 5.3011632037394651e-01 4.8116927572154417e-01  5.5187156472911281e-01 5.3011689595582090e-01 4.8106682489279901e-01  5.5184753953114563e-01 5.3011689964846354e-01 4.8099311375508669e-01  5.5183133174267074e-01 5.3011648445768544e-01 4.8094368063828802e-01  5.5183390344082228e-01 5.3011524626207274e-01 4.8095257116024415e-01  5.5184848564265399e-01 5.3011342186284993e-01 4.8099882153353568e-01  5.5186436549603390e-01 5.3011133669009658e-01 4.8104923920206200e-01  5.5189250321402539e-01 5.3010862683019755e-01 4.8113777457780449e-01  5.5193702884564633e-01 5.3010482675654602e-01 4.8127737893434269e-01  5.5199983461990532e-01 5.3009978185464790e-01 4.8147389886998493e-01  5.5206319328981668e-01 5.3009395947365978e-01 4.8167261896026070e-01  5.5213707462440720e-01 5.3008668428008066e-01 4.8190453017798329e-01  5.5223317683683848e-01 5.3007691475916030e-01 4.8220611518680351e-01  5.5233308799818603e-01 5.3006532696655995e-01 4.8252047304229118e-01  5.5244740616072530e-01 5.3005064994411966e-01 4.8288079402653233e-01  5.5257476280780060e-01 5.3003261628604714e-01 4.8328303898040409e-01  5.5270917180765622e-01 5.3001131059131512e-01 4.8370872844409984e-01  5.5286592430458092e-01 5.2998398227819443e-01 4.8420627390301402e-01  5.5303285629341103e-01 5.2995153747418400e-01 4.8473788852525973e-01  5.5320405277721196e-01 5.2991453522196452e-01 4.8528500136072383e-01  5.5339656502282242e-01 5.2986865650246273e-01 4.8590233546368833e-01  5.5361131874802416e-01 5.2981203619067796e-01 4.8659378582982921e-01  5.5383285528016446e-01 5.2974737876838618e-01 4.8731036214251627e-01  5.5405966916369587e-01 5.2967440372033348e-01 4.8804761108423572e-01  5.5430825951200924e-01 5.2958680088291255e-01 4.8885957978560657e-01  5.5457904504661037e-01 5.2948281776515504e-01 4.8974843483726727e-01  5.5485929537853751e-01 5.2936455694253659e-01 4.9067413136364718e-01  5.5515845952551057e-01 5.2922656797968470e-01 4.9166863594224841e-01  5.5547400063518793e-01 5.2906835421406717e-01 4.9272431218215529e-01  5.5580420727201751e-01 5.2888818476990551e-01 4.9383701461529139e-01  5.5614780804007558e-01 5.2868460261274763e-01 4.9500386379626099e-01  5.5652061744055692e-01 5.2844491001693239e-01 4.9628004563880734e-01  5.5690684787182998e-01 5.2817648538077100e-01 4.9761347520992727e-01  5.5730937464722929e-01 5.2787255395383270e-01 4.9901687590444810e-01  5.5773216327904274e-01 5.2752906384585085e-01 5.0050464680130302e-01  5.5817039557755277e-01 5.2714380806289662e-01 5.0206360902898695e-01  5.5863612629970805e-01 5.2670287253900838e-01 5.0373866660877664e-01  5.5911912937166519e-01 5.2620987453789225e-01 5.0549675336039046e-01  5.5961741685773558e-01 5.2566181752011243e-01 5.0733398043151501e-01  5.6014080078856177e-01 5.2504238595138319e-01 5.0928990650925698e-01  5.6068321635014295e-01 5.2435157794163978e-01 5.1134677347347657e-01  5.6124286419723401e-01 5.2358781713371827e-01 5.1349936993773937e-01  5.6180827651126897e-01 5.2276215423147354e-01 5.1570917910327974e-01  5.6306289727386405e-01 5.2069107730227215e-01 5.2076131859119845e-01  5.6370185418066576e-01 5.1951760354112408e-01 5.2341077875109998e-01  5.6435240508355788e-01 5.1822855715435745e-01 5.2617050486577710e-01  5.6503524450373288e-01 5.1677657508450170e-01 5.2913106965299272e-01  5.6573064231589809e-01 5.1517751618572094e-01 5.3222746090290662e-01  5.6644144048339062e-01 5.1341793196318009e-01 5.3547579025644743e-01  5.6716399644244309e-01 5.1147610112804320e-01 5.3888326829177080e-01  5.6789959805898771e-01 5.0933597252997431e-01 5.4246445734479010e-01  5.6864147371144202e-01 5.0699147068657791e-01 5.4620585966743873e-01  5.6938494706501819e-01 5.0443114175791737e-01 5.5010377161969648e-01  5.7013848358572250e-01 5.0159385275507740e-01 5.5422589394314403e-01  5.7088242717986548e-01 4.9851871797892405e-01 5.5849202117942864e-01  5.7161992762817715e-01 4.9515873825695100e-01 5.6294483938139406e-01  5.7235008577307678e-01 4.9146603824116203e-01 5.6761879057656972e-01  5.7306248730779730e-01 4.8743763122853889e-01 5.7248802712510438e-01  5.7374723728535781e-01 4.8305967479857770e-01 5.7753806223358783e-01  5.7439821256071089e-01 4.7830691346139381e-01 5.8277067909891089e-01  5.7500526452745104e-01 4.7315076703939368e-01 5.8818124019965179e-01  5.7556069783472319e-01 4.6754651173530859e-01 5.9378182491279496e-01  5.7605303097118887e-01 4.6147840816552538e-01 5.9955172795441380e-01  5.7646490674003115e-01 4.5500564381093794e-01 6.0539980314036546e-01  5.7678827450110715e-01 4.4792544027726289e-01 6.1145185889946130e-01  5.7700276288298213e-01 4.4034040900284566e-01 6.1757278149757588e-01  5.7709512019749076e-01 4.3218717396877487e-01 6.2376676430060685e-01  5.7704433242311071e-01 4.2346195470271403e-01 6.2997051345403898e-01  5.7683148358264402e-01 4.1416931738278473e-01 6.3611727648556315e-01  5.7643752362598988e-01 4.0431492384966811e-01 6.4213453965353540e-01  5.7584392448264798e-01 3.9392590587462539e-01 6.4793422152830860e-01  5.7503585125697443e-01 3.8303685584248914e-01 6.5342132972996581e-01  5.7399882228889865e-01 3.7174160945309365e-01 6.5846605961717541e-01  5.7273290674099830e-01 3.6018268756460464e-01 6.6293560304661847e-01  5.7125144511331494e-01 3.4857199684680956e-01 6.6669069194600594e-01  5.6959580168120771e-01 3.3726908411864726e-01 6.6959236709463632e-01  5.6781226772927595e-01 3.2654758078895446e-01 6.7157535035293858e-01  5.6601296953978997e-01 3.1700589524010242e-01 6.7259940027905529e-01  5.6440805392760096e-01 3.0969980775613809e-01 6.7267089817503467e-01  5.6320646790733386e-01 3.0556893973559279e-01 6.7190909579528979e-01  5.6264255996055790e-01 3.0579743694788564e-01 6.7039552135718883e-01  5.6305403779002028e-01 3.1254629523023314e-01 6.6780060214515935e-01  5.6450733127237884e-01 3.2737351889282068e-01 6.6316375012863993e-01  5.6659334471130496e-01 3.5059009258848911e-01 6.5447087274470006e-01  5.6862754132648619e-01 3.8221982956084394e-01 6.3914660837512693e-01  5.6943784966377420e-01 4.1787178642418277e-01 6.1634369663342614e-01  5.6815865555727074e-01 4.5275713458008671e-01 5.8739392439890992e-01  5.6455451031618265e-01 4.8162225463305958e-01 5.5580911864124283e-01  5.5911003551579985e-01 5.0171643257102561e-01 5.2506370943890213e-01  5.5264201007394964e-01 5.1260012317644554e-01 4.9739639740210223e-01  5.4589347106969610e-01 5.1537615555233207e-01 4.7372024431233828e-01  5.3935128473609573e-01 5.1180350297586363e-01 4.5400984165240810e-01  5.3330673009588614e-01 5.0380145225298578e-01 4.3781608743172556e-01  5.2791244399603376e-01 4.9310161095166571e-01 4.2470694765563916e-01  5.2323085418775928e-01 4.8101766625122261e-01 4.1428552861381951e-01  5.1921544857711954e-01 4.6860642663428759e-01 4.0599074662895879e-01  5.1576661441347393e-01 4.5640170356645987e-01 3.9933488513439308e-01  5.1285962481394631e-01 4.4496213595443906e-01 3.9404742596296299e-01  5.1040324462950359e-01 4.3445577379124828e-01 3.8983380506087523e-01  5.0676484749323225e-01 4.1732259526252757e-01 3.8406966197907910e-01  5.0517595816827787e-01 4.0938880983352416e-01 3.8166059666241869e-01  5.0418186069326110e-01 4.0407991494910755e-01 3.8027804096867446e-01  5.0332952158563382e-01 3.9945339642082772e-01 3.7912027328245257e-01  5.0268459644149799e-01 3.9588893495910438e-01 3.7825986218742669e-01  5.0226814387194507e-01 3.9354454380491471e-01 3.7772030752878216e-01  5.0205276587700176e-01 3.9232720475244581e-01 3.7743973186821317e-01  5.0201279455976144e-01 3.9211141509085318e-01 3.7738066117690289e-01  5.0216453770139191e-01 3.9299022565585123e-01 3.7756326707522164e-01  5.0242011374789508e-01 3.9446947056522697e-01 3.7787249526527789e-01  5.0299555256871686e-01 3.9770436957278116e-01 3.7861190269488693e-01  5.0373809939521108e-01 4.0179612224730821e-01 3.7959337871942811e-01  5.0469374354763585e-01 4.0693125118361162e-01 3.8090461651587204e-01  5.0583948626524666e-01 4.1291673846165156e-01 3.8252192700755550e-01  5.0726348243738084e-01 4.2006509959557142e-01 3.8462690403157002e-01  5.0901540441160076e-01 4.2844561420687155e-01 3.8734958499136773e-01  5.1105842513194000e-01 4.3768576521778352e-01 3.9068290626019653e-01  5.1344211571089016e-01 4.4777920434258367e-01 3.9476570185696747e-01  5.1620661807034518e-01 4.5858189943058913e-01 3.9975909824806155e-01  5.1940029801913501e-01 4.6989994439918148e-01 4.0586499312100588e-01  5.2309433845095954e-01 4.8144733882254970e-01 4.1338491267703681e-01  5.2729032742140081e-01 4.9269423952298991e-01 4.2248416719480486e-01  5.3196099851043821e-01 5.0290047684644501e-01 4.3333532935307029e-01  5.3709884791645290e-01 5.1131231691635237e-01 4.4624699552751218e-01  5.4265039546881910e-01 5.1703408547594731e-01 4.6149502989202085e-01  5.4847227948611010e-01 5.1904634117428539e-01 4.7924919368531621e-01  5.5434297308659841e-01 5.1642957141384160e-01 4.9952047277949241e-01  5.5993761942154574e-01 5.0850779036820604e-01 5.2202044890184451e-01  5.6488496162507140e-01 4.9511202888049122e-01 5.4608943830286161e-01  5.6881271753226015e-01 4.7681464140679641e-01 5.7054972478409327e-01  5.7147527211116622e-01 4.5498140499160333e-01 5.9388738708538469e-01  5.7285469872121830e-01 4.3182641367415880e-01 6.1443934027299707e-01  5.7317506955767428e-01 4.0952370009221306e-01 6.3119753670476308e-01  5.7279930266494394e-01 3.9001356697221906e-01 6.4375794332554015e-01  5.7213056262983009e-01 3.7421564225165066e-01 6.5266345914027468e-01  5.7151514648828183e-01 3.6294075499154888e-01 6.5844852442909374e-01  5.7114279490703823e-01 3.5595370148440936e-01 6.6194207804167360e-01  5.7108261006223271e-01 3.5272518495392485e-01 6.6378139129415037e-01  5.7132209675652157e-01 3.5261582273321251e-01 6.6439215831584064e-01  5.7179927080502568e-01 3.5496904989221523e-01 6.6403573257975379e-01  5.7240942473227641e-01 3.5893457615783803e-01 6.6297183342260102e-01  5.7309858453686269e-01 3.6416800439485913e-01 6.6125331734858395e-01  5.7382751809735222e-01 3.7046937510045758e-01 6.5888859858724069e-01  5.7452113737391364e-01 3.7722229385355938e-01 6.5608017050519285e-01  5.7515441985464444e-01 3.8425286385381202e-01 6.5287347980459443e-01  5.7571408176097183e-01 3.9144129652727555e-01 6.4931683333114876e-01  5.7619251645948732e-01 3.9876832953680486e-01 6.4540462011371236e-01  5.7656426930411531e-01 4.0578639915094183e-01 6.4138950290646202e-01  5.7684851640370749e-01 4.1275982800344790e-01 6.3714497011910920e-01  5.7704118298685847e-01 4.1946289727603631e-01 6.3282084704930364e-01  5.7714538757140199e-01 4.2601807929994168e-01 6.2835102432634304e-01  5.7717000974256927e-01 4.3223723124972063e-01 6.2389359852585813e-01  5.7711942558080620e-01 4.3813038023776124e-01 6.1946225771178343e-01  5.7700108855302290e-01 4.4375958401244558e-01 6.1503317121560808e-01  5.7682096674874372e-01 4.4912189826539434e-01 6.1062852935880230e-01  5.7658779666870175e-01 4.5419238185752914e-01 6.0629027249453393e-01  5.7598419967601855e-01 4.6351304171217333e-01 5.9784110849948047e-01  5.7562537929949786e-01 4.6777361803866058e-01 5.9375505652336302e-01  5.7523201808470814e-01 4.7181461938398722e-01 5.8973770965991634e-01  5.7481311081421016e-01 4.7560924270643062e-01 5.8583167636864275e-01  5.7437126166381292e-01 4.7917900314479800e-01 5.8202908490438743e-01  5.7391007724310961e-01 4.8253736118533391e-01 5.7832938386171906e-01  5.7343251346162494e-01 4.8569600015086334e-01 5.7473181480744429e-01  5.7294247725960268e-01 4.8866229142857492e-01 5.7124096745860675e-01  5.7244188729872825e-01 4.9144982539631848e-01 5.6785194269233952e-01  5.7193320987870588e-01 4.9406809241874172e-01 5.6456395505682944e-01  5.7141842057951631e-01 4.9652539402347901e-01 5.6137619824910745e-01  5.7090276583853283e-01 4.9882198108534614e-01 5.5830174323311910e-01  5.7038036167188122e-01 5.0099343202745938e-01 5.5529879904392432e-01  5.6985680067596045e-01 5.0303239663860555e-01 5.5238756190839799e-01  5.6933742465511838e-01 5.0493080003099688e-01 5.4958800232560767e-01  5.6881076925255514e-01 5.0673838853099806e-01 5.4683258432899640e-01  5.6828766583596391e-01 5.0842944980606841e-01 5.4416923115952687e-01  5.6777594020754196e-01 5.0999085672682654e-01 5.4162829454273775e-01  5.6726367426513802e-01 5.1146433275776404e-01 5.3914758112079508e-01  5.6675631478916422e-01 5.1284671290829531e-01 5.3674314590388250e-01  5.6625322772156583e-01 5.1414233464791148e-01 5.3441068077199927e-01  5.6575586626319285e-01 5.1535434204314012e-01 5.3215159665181122e-01  5.6526322638375426e-01 5.1649193979014152e-01 5.2995628096358804e-01  5.6477513378619715e-01 5.1755918250883592e-01 5.2782133859044011e-01  5.6429831630781313e-01 5.1854804373186958e-01 5.2577134697808270e-01  5.6382644680896421e-01 5.1947516361915613e-01 5.2377646902399388e-01  5.6335919707467275e-01 5.2034648743931033e-01 5.2183167580307976e-01  5.6290554808519799e-01 5.2114818640656935e-01 5.1997206040209099e-01  5.6245462088295817e-01 5.2190331656238009e-01 5.1815055884122319e-01  5.6201200012549013e-01 5.2260672972000966e-01 5.1638641583925671e-01  5.6157900058529164e-01 5.2325890093803007e-01 5.1468338166544525e-01  5.6115393793581936e-01 5.2386538175868225e-01 5.1303262904871705e-01  5.6073747773945914e-01 5.2442827748536158e-01 5.1143467006856391e-01  5.6032793213505272e-01 5.2495205707994097e-01 5.0988157129864431e-01  5.5992352461265593e-01 5.2544125780302064e-01 5.0836498542099173e-01  5.5953461220340761e-01 5.2588660324751946e-01 5.0692159513234303e-01  5.5915575561048525e-01 5.2629630646635173e-01 5.0553000909704682e-01  5.5877644184393782e-01 5.2668340142714609e-01 5.0415047549159875e-01  5.5841122603409721e-01 5.2703504305889470e-01 5.0283459730934232e-01  5.5805852551000001e-01 5.2735483901385838e-01 5.0157541522483873e-01  5.5771188799453797e-01 5.2765088269878957e-01 5.0034841999017809e-01  5.5737557945830041e-01 5.2792122246928574e-01 4.9916761519272296e-01  5.5704545025931118e-01 5.2817000673806669e-01 4.9801809355719562e-01  5.5673067962092682e-01 5.2839319231449611e-01 4.9692975469990913e-01  5.5642101530388066e-01 5.2859829451488716e-01 4.9586739980049310e-01  5.5612292633019844e-01 5.2878310559335728e-01 4.9485174735446069e-01  5.5583262353580598e-01 5.2895123557542434e-01 4.9386906522698659e-01  5.5554901117588762e-01 5.2910433380562638e-01 4.9291517933979540e-01  5.5528064623750839e-01 5.2923880979125559e-01 4.9201842227522102e-01  5.5502315937311841e-01 5.2935864257574683e-01 4.9116287545279524e-01  5.5476949730842817e-01 5.2946798405011342e-01 4.9032478793517720e-01  5.5452930744304452e-01 5.2956359217372939e-01 4.8953543571760505e-01  5.5430121701740886e-01 5.2964723460017837e-01 4.8878972926759134e-01  5.5408109915919102e-01 5.2972147233293432e-01 4.8807342436789863e-01  5.5386978251104013e-01 5.2978695642163365e-01 4.8738887271913950e-01  5.5367146450885862e-01 5.2984307449804013e-01 4.8674914833446492e-01  5.5727290859169287e-01 5.2800324149547040e-01 4.9880674293157179e-01  5.7322351385810122e-01 3.6503248585299686e-01 6.6099564251065046e-01  5.5287298061537515e-01 5.2998637257036207e-01 4.8422575151770908e-01  5.7647945690203983e-01 4.5619392641315160e-01 6.0453334537280456e-01  5.5364968788310032e-01 5.2985163350183395e-01 4.8667688512463481e-01  5.6884188590766860e-01 4.3006662961755981e-01 6.0602314993723050e-01  5.5607277182107051e-01 5.2873440426396889e-01 4.9474495268337410e-01  5.6283830580337546e-01 5.2109139534660165e-01 5.1983786033178669e-01  5.0796550271597196e-01 4.2317543819148645e-01 3.8592417664369016e-01  5.7446146497986605e-01 3.7649595771160860e-01 6.5642687549271872e-01  5.6059964803613482e-01 5.2461013713669247e-01 5.1090807599001886e-01  5.7226597664666912e-01 4.3859030179595476e-01 6.0807264430340646e-01  5.6649944018175502e-01 3.1929192907926707e-01 6.7251992890673984e-01  5.6317690835810053e-01 5.2067725748776039e-01 5.2107837622198616e-01  5.7693022163050522e-01 4.4352790502542971e-01 6.1505023178277762e-01  5.5217388735941908e-01 5.3008719708928820e-01 4.8201660756244646e-01  5.4034160753116978e-01 5.1478621541694425e-01 4.5520211348688683e-01  5.1271496581629594e-01 4.4468879410279155e-01 3.9355724203986725e-01  5.5191671388417651e-01 5.3011513725812642e-01 4.8120682145045379e-01  5.6652822210984743e-01 5.1344681002150483e-01 5.3567658156423381e-01  5.7414055483925219e-01 4.8027184569123010e-01 5.8063848905969329e-01  5.7017407771175088e-01 5.0182202872358184e-01 5.5413365049083774e-01  5.5200286085308858e-01 5.3011393469936274e-01 4.8147165773063683e-01  5.0385114890120064e-01 4.0236711621928400e-01 3.7977984364080675e-01  5.6992175364009257e-01 5.0244430862264233e-01 5.5301586128590408e-01  5.7275786692129771e-01 4.8972639971282711e-01 5.6996469232337454e-01  5.5237206560648155e-01 5.3008694546940682e-01 4.8262176634446891e-01  5.5548446277359387e-01 5.2914092519479283e-01 4.9269638626590334e-01  5.7669396081637170e-01 4.0864039097719679e-01 6.3969124702574442e-01  5.3706006833458064e-01 5.0893992000522814e-01 4.4791037705481229e-01  5.5850001436982255e-01 5.2684019531262283e-01 5.0324321473819955e-01  5.5398383863209077e-01 5.2970292064803437e-01 4.8779789107658472e-01  5.0245246833979351e-01 3.9455355874297776e-01 3.7797670615219586e-01  5.6693802568661567e-01 5.1210392216562606e-01 5.3780326006778501e-01  5.7463823650353696e-01 4.7708077167497975e-01 5.8428376202361876e-01  5.5282847460272611e-01 5.3002695269509192e-01 4.8405791728241543e-01  5.6222815543700255e-01 3.0561295781767722e-01 6.6945846584245727e-01  5.7076961008535809e-01 3.5149689712067039e-01 6.6382249685904537e-01  5.5448295261549507e-01 5.2958383940033282e-01 4.8938140547849190e-01  5.5867119347700134e-01 5.2679112015082286e-01 5.0376683065569461e-01  5.7715627065014385e-01 4.3520074671701198e-01 6.2169794237451503e-01  5.1832512115101670e-01 4.6546075927212915e-01 4.0432181711065662e-01  5.6044894100541243e-01 5.2465994801607663e-01 5.1045144143777943e-01  5.5202789312504763e-01 5.3010396130881565e-01 4.8155641454722664e-01  5.5721779109810010e-01 5.2794941267953932e-01 4.9869193960123726e-01  5.0400628888661003e-01 4.0308259037575583e-01 3.8007164840737406e-01  5.5667124928849376e-01 5.0601231495655641e-01 5.1464028021391317e-01  5.6481608832794505e-01 5.1726319428207834e-01 5.2816653963840776e-01  5.7661345378227535e-01 4.0817243817209153e-01 6.3984473887173010e-01  5.5633707184305059e-01 5.2865453855373712e-01 4.9557819279973159e-01  5.5340810561024123e-01 5.2987100816129540e-01 4.8593525836763474e-01  5.6458090767853519e-01 5.1797338438240847e-01 5.2697820403215956e-01  5.2585479121170808e-01 4.8887737795727798e-01 4.1942726691774562e-01  5.6805269788591051e-01 5.0916309158154893e-01 5.4299066543497321e-01  5.7538112740163583e-01 3.8696050883484867e-01 6.5158087582583479e-01  5.5481001107104344e-01 5.2939054128761087e-01 4.9050736607359818e-01  5.6185957079