<?xml version="1.0"?>
<VTKFile type="UnstructuredGrid"  version="0.1"  >
<UnstructuredGrid>
<Piece  NumberOfPoints="4940" NumberOfCells="9650">
<Points>
<DataArray  type="Float64"  NumberOfComponents="3"  format="ascii">500 250 0  0 250 0  250 500 0  250 0 0  256.8885856082646 499.9050767557906 0  263.7719401218049 499.6203791065173 0  270.6448364229772 499.1461232471188 0  277.5020553257866 498.4826693209355 0  284.3383895508592 497.6305211460281 0  291.1486476865662 496.5903258312597 0  297.9276581259182 495.3628732847843 0  304.6702729675493 493.9490956196674 0  311.3713719748657 492.3500664368026 0  318.0258664141369 490.5670000199653 0  324.6287029687753 488.6012504015818 0  331.1748675330201 486.4543103455647 0  337.6593890460416 484.1278102064655 0  344.0773432429536 481.6235166997244 0  350.4238564271474 478.9433315480048 0  356.694109139292 476.0892900492477 0  362.88333985546 473.0635595140469 0  368.9868485575419 469.8684376402048 0  375.0000003153078 466.5063507640667 0  380.9182288257928 462.9798520074548 0  386.7370398729688 459.2916193419558 0  392.4520147244077 455.444453565817 0  398.0588135356345 451.4412761437442 0  403.5531785622926 447.285127045646 0  408.9309374414144 442.9791624087773 0  414.1880064015299 438.5266521049243 0  419.3203932989752 433.9309773069245 0  424.324200661095 429.1956279150535 0  429.1956286596235 424.3241998957182 0  433.9309780058756 419.3203925397119 0  438.5266527445345 414.1880056671062 0  442.9791630130591 408.9309367076756 0  447.2851276060475 403.5531778422888 0  451.4412766621026 398.0588128303826 0  455.4444540361634 392.4520140460735 0  459.2916197786263 386.7370392045948 0  462.9798524073514 380.9182281752347 0  466.5063511234856 374.9999996927758 0  469.8684379657123 368.9868479560565 0  473.0635598144817 362.8833392617846 0  476.0892903190255 356.6941085676214 0  478.9433317963513 350.4238558609745 0  481.6235169154735 344.0773427117675 0  484.12781039012 337.6593885555221 0  486.4543105028062 331.1748670749914 0  488.601250531677 324.6287025528375 0  490.5670001317469 318.0258660188321 0  492.3500665291326 311.3713716102628 0  493.949095695951 304.6702726271575 0  495.3628733416623 297.9276578347343 0  496.5903258712341 291.1486474470129 0  497.6305211749058 284.3383893426084 0  498.4826693388848 277.502055163614 0  499.1461232580606 270.6448362909296 0  499.6203791109319 263.7719400417897 0  499.9050767571306 256.8885855596534 0  499.9050767559877 243.1114143988867 0  499.6203791069493 236.2280598860241 0  499.1461232485393 229.3551635941651 0  498.4826693235677 222.4979446979962 0  497.6305211491849 215.6616104719064 0  496.5903258357701 208.8513523404629 0  495.3628732906988 202.0723419043604 0  493.9490956264813 195.3297270628552 0  492.3500664487791 188.6286280724281 0  490.5670000344809 181.9741336371959 0  488.6012504175981 175.3712970824318 0  486.4543103623226 168.8251325157939 0  484.1278102222298 162.3406109960628 0  481.6235167152198 155.9226567951971 0  478.9433315621651 149.5761436051346 0  476.0892900516498 143.3058908657982 0  473.063559513628 137.1166601437124 0  469.8684376406648 131.0131514433083 0  466.5063507675389 124.9999996907064 0  462.9798520124137 119.0817711822745 0  459.2916193464549 113.2629601339176 0  455.4444535642773 107.5479852733717 0  451.4412761528674 101.9411864767781 0  447.2851270583545 96.44682145403524 0  442.9791624165781 91.06906256805769 0  438.5266521117469 85.81199360630404 0  433.9309773156125 80.67960671046254 0  429.1956279150353 75.67579933888632 0  424.3241998888952 70.80437133373906 0  419.3203925223282 66.06902197812161 0  414.1880056411937 61.47334723289828 0  408.9309366751728 57.0208369601728 0  403.5531778009394 52.71487236176898 0  398.058812796452 48.55872331295853 0  392.4520140187753 44.55554594490843 0  386.7370391799677 40.70838020528396 0  380.9182281475119 37.02014757560744 0  374.9999996718656 33.49364886444181 0  368.9868479340393 30.13156202237255 0  362.8833392380029 26.93644017348339 0  356.6941085456942 23.91070967062674 0  350.4238558420009 21.0566681953261 0  344.0773426899492 18.37648307566465 0  337.6593885328982 15.87218960140942 0  331.1748670549786 13.54568949032341 0  324.6287025315056 11.39874946165088 0  318.0258660010876 9.432999863235466 0  311.3713716017894 7.649933468721599 0  304.6702726190621 6.050904302234756 0  297.9276578269805 4.637126656823085 0  291.148647441857 3.409674127905504 0  284.3383893425031 2.369478825079682 0  277.502055159398 1.517330660648639 0  270.6448362875833 0.853876741662134 0  263.7719400401456 0.3796208889774277 0  256.8885855592052 0.09492324285704967 0  243.1114143979462 0.09492324403817065 0  236.2280598850882 0.3796208931023841 0  229.3551635938215 0.8538767514891958 0  222.4979446968584 1.517330676558146 0  215.6616104703111 2.369478851036291 0  208.8513523382973 3.409674164591252 0  202.0723419066374 4.637126708856528 0  195.3297270659513 6.050904372824903 0  188.628628074828 7.649933550613184 0  181.9741336377093 9.432999965373938 0  175.3712970793675 11.39874958336037 0  168.8251325057572 13.54568964112298 0  162.340610986655 15.87218978129263 0  155.9226567874317 18.37648328793418 0  149.576143602509 21.05666843898663 0  143.3058908718157 23.91070994551046 0  137.1166601505524 26.93644048291054 0  131.0131514451933 30.13156235831508 0  124.9999996848412 33.49364923584736 0  119.0817711715717 37.0201479941652 0  113.2629601211624 40.70838066187849 0  107.5479852622251 44.55554644345162 0  101.9411864693332 48.55872385260452 0  96.44682143286516 52.71487295812284 0  91.06906254351222 57.02083760363669 0  85.81199358272519 61.4733479087879 0  80.67960667988106 66.06902271253972 0  75.67579930062769 70.80437212218331 0  70.80437129287643 75.67580015310926 0  66.06902193673014 80.67960752263491 0  61.47334718684866 85.81199441168215 0  57.02083692524275 91.0690633672404 0  52.71487232786438 96.44682224262129 0  48.55872328070024 101.941187247437 0  44.55554591578033 107.5479860232332 0  40.7083801742321 113.2629608675606 0  37.02014754791168 119.0817718975441 0  33.49364883372994 125.000000381329 0  30.13156199866361 131.0131521097709 0  26.9364401549829 137.1166607985551 0  23.91070965524918 143.3058914868915 0  21.05666818346614 149.576144185037 0  18.37648306853811 155.9226573275967 0  15.8721895918909 162.3406114925245 0  13.54568948170046 168.8251329701392 0  11.39874945301878 175.3712974960928 0  9.432999857087736 181.9741340206533 0  7.649933466342702 188.6286284076045 0  6.050904301250966 195.3297273853278 0  4.637126656808988 202.0723421730917 0  3.409674127767772 208.8513525589684 0  2.369478824521138 215.6616106615248 0  1.517330660909465 222.4979448382452 0  0.8538767414496533 229.355163714981 0  0.3796208887135322 236.2280599646376 0  0.09492324266324204 243.1114144478261 0  0.0949232442452228 256.8885856095658 0  0.3796208935834784 263.7719401236316 0  0.8538767530323526 270.6448364248016 0  1.517330679476544 277.5020553295092 0  2.369478854618649 284.3383895555228 0  3.409674170191892 291.1486476952655 0  4.6371267162381 297.9276581311522 0  6.050904381420935 304.6702729724059 0  7.649933562385399 311.3713719716595 0  9.43299997979841 318.0258664133013 0  11.3987495994252 324.6287029719946 0  13.54568965885832 331.174867545904 0  15.87218979367188 337.6593890464085 0  18.37648329843151 344.0773432384132 0  21.05666844777872 350.423856417535 0  23.91070995156048 356.6941091410045 0  26.93644048988043 362.8833398632205 0  30.13156235982007 368.9868485575877 0  33.49364924138357 375.0000003247478 0  37.0201480006036 380.9182288389023 0  40.70838066758398 386.7370398875706 0  44.55554644477201 392.4520147396792 0  48.55872386086904 398.0588135419111 0  52.71487295981296 403.5531785693063 0  57.02083760525949 408.9309374584583 0  61.47334790862246 414.1880064170849 0  66.06902271205095 419.320393319588 0  70.80437211216579 424.3242006890749 0  75.67580013809859 429.195628692521 0  80.6796075127923 433.930978054209 0  85.81199439754931 438.5266528008431 0  91.06906334717917 442.9791630582355 0  96.44682221438322 447.2851276501571 0  101.9411872243843 451.441276702356 0  107.5479859945825 455.4444540643537 0  113.2629608446994 459.2916198108319 0  119.0817718768376 462.9798524393601 0  125.0000003647644 466.5063511567065 0  131.0131521012763 469.8684379967393 0  137.1166607840049 473.0635598376539 0  143.3058914748804 476.0892903390826 0  149.5761441732679 478.9433318113714 0  155.9226573130112 481.6235169255377 0  162.3406114779862 484.1278104026658 0  168.8251329570439 486.4543105138039 0  175.3712974805475 488.601250542119 0  181.9741340135204 490.5670001408953 0  188.6286284005059 492.3500665318597 0  195.3297273788229 493.9490956972913 0  202.0723421640089 495.3628733414168 0  208.8513525529672 496.5903258712308 0  215.6616106544547 497.6305211744985 0  222.4979448327038 498.4826693384772 0  229.3551637102845 499.1461232581612 0  236.2280599621369 499.6203791111485 0  243.1114144470173 499.9050767573145 0  155.2373389820306 474.8197567317462 0  25.36256300907667 153.9152755065208 0  432.3709625126712 412.6214396304305 0  6.013151705810699 246.637913163471 0  246.6379131630491 493.986848294322 0  338.6995838441862 22.68244767887072 0  477.3175523131281 338.6995838660569 0  493.9868482700757 246.6379131399102 0  246.6201155078769 6.218451882810491 0  417.6179310263282 72.7156044707053 0  102.2232990934413 445.0100869616822 0  63.66330858966404 92.20354579482142 0  391.3105220491464 50.73522820883105 0  72.79295043967942 418.0702734974704 0  448.290574428537 108.25674339002 0  402.4604651193511 440.7462829841712 0  97.55317348421397 59.11376320116034 0  136.7376477664901 33.58246472647134 0  363.3288394375288 465.6947312928271 0  44.0678766556007 381.0860953771871 0  469.6905266180034 142.3890690100806 0  22.68244791668644 338.6995843487432 0  338.699584349159 477.317552078365 0  173.389488083762 18.6681884918202 0  483.4809734778481 179.7121987795732 0  13.50237455842738 306.4709525540879 0  305.9825168523021 487.24416992
[...]
<PointData  Vectors="f_12"> 
<DataArray  type="Float64"  Name="f_12"  NumberOfComponents="3" format="ascii">6.2627297082318478e-01 4.4849449683266002e-01 7.7725407372938904e-01  4.7124619305604309e-01 3.0066290800328965e-01 2.0158195398103793e-01  6.1212984738599341e-01 7.6256481682646615e-01 3.6485169353179914e-01  5.9626020395078660e-01 2.5914057488521375e-01 8.6215657873748164e-01  6.1166714104266873e-01 7.6304046491142175e-01 3.6344720315863394e-01  6.1124577824011539e-01 7.6346265545130210e-01 3.6217875811787908e-01  6.1083990401147081e-01 7.6386065426779837e-01 3.6096495309903137e-01  6.1047054425617631e-01 7.6421516194655614e-01 3.5986763470027500e-01  6.1012855419360190e-01 7.6453656108509527e-01 3.5885814660014909e-01  6.0981543934519145e-01 7.6482563304869511e-01 3.5793855334588892e-01  6.0953100184428688e-01 7.6508379586244890e-01 3.5710729511697076e-01  6.0927322795236361e-01 7.6531413376944302e-01 3.5635725048425432e-01  6.0904441297162404e-01 7.6551572710983240e-01 3.5569404455232539e-01  6.0884627823113868e-01 7.6568801645130935e-01 3.5512191119362296e-01  6.0869510979618768e-01 7.6581771174984126e-01 3.5468707736885552e-01  6.0853768557326771e-01 7.6595272023630567e-01 3.5423387248252902e-01  6.0845697359359063e-01 7.6602054865698821e-01 3.5400305960736811e-01  6.0837697579975669e-01 7.6608835133451314e-01 3.5377347948093329e-01  6.0833357025924018e-01 7.6612494327416514e-01 3.5364912187758407e-01  6.0831707392590439e-01 7.6613922338042562e-01 3.5360134220525186e-01  6.0832460929271415e-01 7.6613391483107873e-01 3.5362145553509516e-01  6.0837884395551245e-01 7.6608857710480549e-01 3.5377632855300145e-01  6.0846539293040325e-01 7.6601573883538610e-01 3.5402410888905639e-01  6.0856236371505545e-01 7.6593464507129239e-01 3.5430076062105914e-01  6.0869191168603165e-01 7.6582525411787394e-01 3.5467146413817946e-01  6.0886287278277629e-01 7.6567861627074374e-01 3.5516307088243160e-01  6.0907838427382899e-01 7.6549124607742502e-01 3.5578521247647743e-01  6.0930237084828953e-01 7.6529484710813278e-01 3.5643299586656940e-01  6.0955531230033866e-01 7.6506982844575189e-01 3.5716745653966525e-01  6.0986069005579180e-01 7.6479284029790429e-01 3.5805940652859702e-01  6.1018098583550251e-01 7.6449752068238341e-01 3.5899922914933585e-01  6.1053805311580134e-01 7.6416132958304639e-01 3.6005350419764814e-01  6.1092847099931735e-01 7.6378600467552338e-01 3.6121358480729793e-01  6.1134014335341180e-01 7.6338186273409503e-01 3.6244442701269647e-01  6.1180462515388911e-01 7.6291370533404901e-01 3.6384504916870475e-01  6.1229635170718899e-01 7.6240544880911365e-01 3.6533993720910535e-01  6.1280337451185285e-01 7.6186866054315072e-01 3.6689293279487417e-01  6.1336121102523167e-01 7.6126003057103531e-01 3.6861956062035406e-01  6.1397163002711763e-01 7.6057219028416523e-01 3.7053105007540760e-01  6.1460216316440841e-01 7.5984015232229396e-01 3.7252647937653244e-01  6.1525017524465320e-01 7.5906446058908372e-01 3.7460018078201357e-01  6.1594964693372711e-01 7.5819765492205815e-01 3.7686873894955841e-01  6.1670077481397123e-01 7.5723409114457041e-01 3.7933829115024809e-01  6.1747833559679244e-01 7.5619919147876302e-01 3.8193349548078226e-01  6.1830142733916427e-01 7.5506045174421133e-01 3.8472625522573900e-01  6.1916373922297807e-01 7.5382142313207379e-01 3.8770018825841768e-01  6.2006218840572891e-01 7.5247735380037961e-01 3.9085547377023383e-01  6.2099411015030359e-01 7.5102363818374451e-01 3.9419334803386935e-01  6.2199122117874561e-01 7.4939710775655166e-01 3.9784215121920685e-01  6.2301998632867928e-01 7.4764388203237142e-01 4.0169003309715540e-01  6.2408761889180531e-01 7.4573388136449614e-01 4.0578500370841003e-01  6.2519908442551075e-01 7.4365068347198215e-01 4.1015471794934805e-01  6.2634514598724866e-01 7.4138832954019429e-01 4.1479273099448055e-01  6.2754986614176234e-01 7.3888601406324361e-01 4.1981265052770189e-01  6.2879624351312258e-01 7.3615990565351153e-01 4.2515720360331022e-01  6.3005410470547385e-01 7.3315055345235547e-01 4.3087819142423028e-01  6.3123046537794369e-01 7.2993725935659504e-01 4.3678745042858369e-01  6.3211508561846497e-01 7.2857818321433554e-01 4.4018770279104003e-01  6.3543095335967703e-01 7.3482349150300441e-01 4.3057864260391471e-01  6.5458255966438283e-01 7.1531028199851887e-01 5.0130836725285699e-01  5.5701324483394676e-01 1.8342091173411551e-01 7.8499636367479853e-01  4.8491434988114973e-01 1.4383485169455895e-01 4.0321957365796829e-01  4.9932380646010111e-01 3.7846928080973730e-01 3.3640086058710761e-01  5.6514891870683603e-01 6.3419232117030122e-01 4.1523391737161464e-01  6.1603154205208877e-01 6.6125566499397470e-01 5.0878218332963987e-01  6.2800944023963212e-01 5.5946935368679795e-01 6.5610608612766330e-01  5.8183566549589982e-01 3.8827632749273050e-01 7.3629956764603144e-01  5.1836242720745573e-01 3.9064027251220884e-01 4.3105384704741589e-01  4.7165480975616997e-01 2.1698429978739683e-01 2.6469025300879756e-01  4.8611509969619471e-01 1.0187922403238155e-01 4.2399920949899128e-01  5.4281706113669403e-01 1.2534958965613319e-01 7.3027191323666663e-01  5.5613219274024239e-01 1.4440929746218131e-01 7.7599961801874884e-01  5.1976854469026312e-01 9.7745927964285884e-02 6.2467652481429836e-01  4.8892354933552484e-01 8.3014531515525583e-02 4.4631822491445655e-01  4.6902318400463627e-01 9.8056268319513015e-02 3.1143117101760376e-01  4.6161691308882541e-01 1.5676286164269115e-01 2.3274794173026495e-01  4.8240939745885708e-01 2.6026278522445045e-01 3.0795820752367120e-01  5.3705582940671437e-01 3.3583229043360280e-01 5.9406975232529158e-01  5.7317289287253848e-01 5.6413911830469643e-01 5.1847073543058630e-01  5.4164351750501816e-01 6.9541433211018389e-01 2.4963358069107433e-01  5.6414939550635090e-01 6.7493996652527655e-01 3.5370862347550835e-01  5.9146003318802032e-01 4.1285421223964214e-01 7.3551762160724576e-01  5.7314537871793469e-01 2.1822272420796360e-01 8.2079195730993604e-01  5.7116280814246434e-01 1.8426846098266766e-01 8.1910448924956325e-01  5.8237922409265586e-01 2.0639913198696788e-01 8.4020257796167142e-01  5.9497372638690182e-01 2.4340563682357017e-01 8.5488966876378758e-01  6.0958414317641196e-01 2.9978243774554292e-01 8.5624913403068026e-01  6.3079203200811773e-01 4.0518318584771362e-01 8.1054826681722070e-01  6.4351231350347882e-01 4.7559910111704712e-01 7.5546685969307414e-01  6.0851063443745579e-01 3.0799502143418450e-01 8.5819652435828131e-01  5.4074211488382806e-01 1.2772734480666278e-01 7.3105898258807345e-01  4.9374499789063225e-01 8.5466445064350721e-02 4.8055866854482826e-01  4.6862545795981625e-01 9.8338302452673457e-02 3.1084232456972094e-01  4.5937504017051839e-01 1.5963902883718067e-01 2.1617851153739645e-01  4.6783618073578614e-01 2.9883431499584828e-01 1.8210380025429271e-01  4.9542908748651476e-01 5.1371693430335319e-01 1.9510954250817358e-01  5.3806292641609610e-01 6.9233941327706672e-01 2.4255092422735319e-01  5.8294387416246962e-01 7.5094447735062342e-01 3.2253830734609396e-01  6.1690131011183902e-01 7.3252650545778231e-01 4.1300673447171987e-01  6.3605329627553553e-01 6.8508523104797536e-01 5.0163014654585203e-01  6.4322319263464600e-01 6.2420396467704953e-01 5.8669853763569557e-01  6.4501838128619315e-01 5.9115676100155645e-01 6.2843115722102005e-01  6.4499650746990378e-01 5.8058887486554311e-01 6.4360182014242417e-01  6.4464977377020660e-01 6.0562476146407285e-01 6.1365956730521343e-01  6.3964470808927787e-01 6.5382631188397455e-01 5.4684333747500746e-01  6.2444825058737596e-01 7.1094322221574435e-01 4.5293738004726281e-01  5.9368501181915367e-01 7.4744600174701614e-01 3.5121810582525564e-01  5.4836652063990343e-01 7.1177596898712159e-01 2.6228087951914208e-01  5.0087758426979523e-01 5.3881742911693031e-01 2.0409414617753893e-01  4.6916131844871400e-01 3.0362430220531472e-01 1.8794263420441687e-01  4.6080079922513401e-01 1.5086770860583859e-01 2.3053685421190570e-01  4.7740847834178346e-01 9.4421143198957017e-02 3.7109251998381543e-01  5.2178085103150207e-01 1.0466686739558666e-01 6.4234388910532936e-01  5.9231866301202329e-01 2.4962964313658048e-01 8.6426255566078991e-01  6.4133247946834337e-01 4.6992608316627438e-01 7.5891175607693706e-01  6.3750532187175191e-01 4.4755655558075613e-01 7.7940057849090483e-01  5.5461017028278381e-01 1.4573141872610929e-01 7.7884209304294627e-01  5.2877646173057236e-01 1.0531492406526814e-01 6.7415379739372616e-01  5.1964041909626280e-01 9.7881274268891871e-02 6.3047946464157789e-01  5.4230557787926659e-01 1.2671217660022560e-01 7.3553231292306609e-01  5.9235016195453161e-01 2.3911412029020129e-01 8.6493558198734088e-01  6.3128205389383107e-01 3.9358546002636285e-01 8.1619721086687214e-01  6.2670165386986143e-01 3.8471119317105829e-01 8.1983612013465212e-01  5.8907571285590909e-01 2.7849503129079028e-01 8.3444523047608010e-01  5.6383868868511122e-01 3.4940323244871219e-01 6.9628446921210863e-01  5.2514011703340180e-01 4.7879895557533797e-01 3.8617334198974002e-01  4.7641394114496421e-01 2.3263332293092073e-01 2.8775459995152375e-01  4.9235346387360673e-01 1.0840289568873027e-01 4.6737944020387795e-01  5.6368049187303726e-01 1.9249354491301759e-01 8.1220877641170863e-01  6.2349100021906845e-01 4.8649492369943870e-01 7.3159640473907339e-01  6.2565510867005070e-01 7.1844032212583264e-01 4.4417418673979187e-01  6.2516220336793893e-01 7.3415914261673154e-01 4.2229750431308249e-01  6.3748348954393763e-01 6.0009113050583429e-01 6.1582802550647120e-01  6.2751291755745375e-01 4.1647541109272890e-01 8.0063342595052323e-01  5.8075934025959963e-01 2.0990097534429297e-01 8.4891515478526303e-01  5.1863826347163933e-01 9.9004145812245481e-02 6.2582223430179984e-01  4.7846183338463127e-01 9.0249116259498899e-02 3.8007886062046964e-01  4.6144428471102983e-01 1.3346837286070259e-01 2.4524193857131621e-01  4.6188633067992796e-01 2.3191797074212270e-01 1.8892116618652122e-01  4.7718923311187822e-01 3.9035295737797648e-01 1.7804418720426160e-01  5.0370914252008669e-01 5.6638154214763625e-01 1.9481108647566298e-01  5.3395563412066038e-01 6.8961651746554919e-01 2.2703849948036020e-01  5.6025450743571392e-01 7.4581118206724728e-01 2.6367359595222062e-01  5.7799946236807809e-01 7.6285203593575701e-01 2.9386126415583769e-01  5.8654074181696192e-01 7.6539145980612133e-01 3.1116909639843865e-01  5.8625726194306660e-01 7.6498137667849653e-01 3.1109911974363713e-01  5.7749013536332672e-01 7.6109252152180606e-01 2.9462353197744723e-01  5.5992413039344269e-01 7.4522458912365597e-01 2.6312230949192789e-01  5.3512664669718513e-01 6.9456448923684222e-01 2.2756129630945995e-01  5.0521187315646199e-01 5.8431324739536317e-01 1.9134356743451342e-01  4.7942991092955312e-01 4.1595282454342664e-01 1.7385709203645991e-01  4.6311344902466817e-01 2.6290782080091757e-01 1.7695835634068960e-01  4.5838679121256354e-01 1.6093818018195047e-01 2.0943581786146931e-01  4.6499855777315108e-01 1.0570614625517923e-01 2.8350714196069648e-01  4.8365614498083104e-01 8.4333942475920506e-02 4.1659123058986780e-01  5.1864272515057130e-01 9.8665447363006975e-02 6.2504253254803732e-01  5.7031088924380435e-01 1.8727495428772298e-01 8.3222739997497908e-01  6.2943967761322972e-01 4.2736707719606032e-01 7.9183301673483786e-01  6.4233883038982964e-01 5.1343432780001308e-01 7.1873316835084644e-01  5.5787472152570827e-01 2.1765057054085749e-01 7.8483916490210082e-01  4.8315277608586049e-01 1.7237077899565431e-01 3.7135756752667337e-01  4.6349266213019735e-01 2.2015376712080534e-01 2.0583204923562376e-01  4.6090825977949701e-01 2.3425419893264368e-01 1.7934509605951313e-01  4.6386531451536761e-01 2.3411182746699039e-01 1.9872909384655754e-01  4.7744578558973044e-01 1.7849439815706572e-01 3.2959519552254779e-01  5.2733797661193238e-01 1.5953079929619204e-01 6.6513786685737586e-01  6.0135213128169718e-01 4.2527712352217933e-01 7.5731643918465885e-01  5.9236794088268696e-01 7.1786745908764826e-01 3.8006713174955475e-01  5.7779550050506567e-01 7.4236809422664696e-01 3.1837237866923029e-01  5.9210394236200692e-01 5.0042276207535341e-01 6.5302329198948517e-01  5.3826549193628803e-01 2.6316439097060246e-01 6.5987797030346129e-01  4.9724854984857669e-01 3.2376083921762161e-01 3.5504852987499635e-01  4.6014614587902702e-01 1.7278116958809811e-01 2.1234886164298578e-01  4.6631099417035227e-01 1.0615704029835357e-01 2.8920783682819645e-01  4.8847957985648949e-01 8.6486319843054077e-02 4.4268831539851983e-01  5.2551445260471064e-01 1.0187179294541311e-01 6.5170348156645075e-01  5.2689517591479595e-01 1.0213647573977404e-01 6.6089390626763977e-01  4.8321764152268848e-01 9.6899509457978303e-02 4.0597997476960090e-01  4.6693196113592234e-01 1.8526225056858989e-01 2.5218377306017969e-01  4.9895070248752255e-01 3.0499155870428923e-01 3.8115237122754331e-01  5.5831091728954618e-01 2.9050713113952414e-01 7.3207487746321831e-01  6.1465726693277012e-01 4.9660608762094127e-01 7.0613210290485584e-01  5.9612241709493574e-01 6.3054873822812108e-01 5.0709600800999266e-01  5.3052021749193090e-01 5.4696665041543013e-01 3.6060636432244492e-01  4.7864873982432882e-01 2.3554983236692170e-01 3.0262047570916562e-01  4.9972613606600874e-01 1.1387142263402943e-01 5.1632508986829939e-01  5.8946060701195735e-01 2.5517207417166282e-01 8.5697234617925155e-01  6.4875870000956737e-01 5.5365074187345908e-01 6.8447028375396202e-01  6.5078286780104333e-01 6.6529043428388013e-01 5.4105501097656894e-01  6.4577422490420522e-01 6.7847611026036880e-01 5.2270233921750375e-01  6.4423829461426751e-01 6.8199119910659622e-01 5.1634404632871955e-01  6.4338300423144412e-01 6.8604604178047124e-01 5.1010243645051934e-01  6.4248877022519213e-01 6.9095560332738326e-01 5.0252824337601576e-01  6.4151960286548293e-01 6.9560654108668674e-01 4.9525414896435371e-01  6.4052540987962359e-01 6.9996311498967767e-01 4.8832013400037172e-01  6.3952230746365146e-01 7.0407919333979330e-01 4.8166014949057823e-01  6.3851972210705643e-01 7.0793781998216043e-01 4.7532260966181206e-01  6.3750935141127474e-01 7.1158972160866030e-01 4.6922996420192620e-01  6.3649177494263920e-01 7.1506036377414917e-01 4.6334961430338112e-01  6.3548497268640303e-01 7.1830258868810437e-01 4.5776791530963984e-01  6.3447189667138404e-01 7.2139153035754022e-01 4.5236515634208618e-01  6.3346295216111304e-01 7.2431491810697635e-01 4.4717045929492055e-01  6.3246198640077034e-01 7.2707179070430639e-01 4.4219185015728557e-01  6.3146784303560100e-01 7.2967872178376292e-01 4.3740612912960625e-01  6.3048280249328781e-01 7.3214297104258785e-01 4.3280715756118038e-01  6.2950506121554195e-01 7.3447837031214269e-01 4.2837472882661931e-01  6.2853208026554119e-01 7.3670072516355889e-01 4.2408455286296204e-01  6.2758353792974286e-01 7.3877508551499216e-01 4.2001083338450473e-01  6.2665169381725505e-01 7.4072693077157770e-01 4.1610982154068271e-01  6.2571690074879194e-01 7.4260621964041651e-01 4.1228743212290592e-01  6.2480729495252452e-01 7.4436117452563255e-01 4.0865307405787338e-01  6.2392142570838804e-01 7.4600172310902912e-01 4.0519235154306738e-01  6.2304746920524312e-01 7.4755916150696644e-01 4.0184688126885182e-01  6.2219400936374902e-01 7.4902355896373174e-01 3.9864294215289720e-01  6.2135445310676340e-01 7.5040959776837457e-01 3.9555211826516501e-01  6.2054612522464614e-01 7.5169732690564961e-01 3.9262695656472962e-01  6.1975139618252617e-01 7.5291705227039774e-01 3.8980199667912896e-01  6.1898259807574096e-01 7.5405575140561842e-01 3.8711374812749627e-01  6.1823261717998568e-01 7.5512950076701468e-01 3.8453019539612748e-01  6.1749968075346451e-01 7.5614426657782263e-01 3.8204157726040017e-01  6.1680205026485146e-01 7.5707606991653942e-01 3.7970961659121877e-01  6.1613177543710040e-01 7.5794283792653050e-01 3.7749828962178972e-01  6.1547480060985327e-01 7.5876670031865545e-01 3.7535686956873482e-01  6.1485071903077892e-01 7.5952483206924781e-01 3.7334759967455133e-01  6.1425738959145659e-01 7.6022341887554556e-01 3.7146010948872260e-01  6.1368682908734440e-01 7.6087643442085962e-01 3.6966325106393144e-01  6.1314066096990993e-01 7.6148438905191684e-01 3.6796019899511656e-01  6.1262800833733178e-01 7.6203934106094329e-01 3.6637690228668990e-01  6.2188651047524213e-01 7.4953247527464095e-01 3.9751091185540066e-01  6.2839816605431020e-01 4.1971263461524555e-01 8.0019857769746761e-01  6.1175668896682300e-01 7.6295858812532102e-01 3.6370576119033543e-01  4.8379175750703274e-01 3.4068329804249220e-01 2.5374532254070331e-01  6.1252842523728179e-01 7.6214218964492098e-01 3.6607568324473005e-01  6.2638707134229865e-01 4.4949455519837450e-01 7.6924910064583607e-01  6.2072515887721036e-01 7.5143857252899438e-01 3.9323826470417450e-01  5.8762642662919817e-01 2.6016204747510202e-01 8.6081764486423729e-01  5.4014898313920079e-01 1.3451246918108814e-01 7.2293420960046617e-01  6.1899674317321696e-01 3.5544349024701483e-01 8.3585069361946152e-01  6.3012145984135137e-01 7.3301191513043484e-01 4.3116337189338871e-01  5.9215014068721383e-01 7.1726700646523822e-01 3.8535107370744803e-01  4.6820030881067243e-01 2.8978496226990330e-01 1.9381115793418113e-01  6.3605436769172996e-01 7.1648124885273012e-01 4.6091137121474546e-01  5.7587698116633679e-01 2.5856280189736564e-01 8.1181253916938634e-01  6.0957498209455996e-01 7.6504766002228730e-01 3.5723096729502024e-01  5.0858018690812734e-01 5.6467684704733345e-01 2.2287884077328624e-01  6.3033499996219855e-01 4.6344533958045114e-01 7.6159462427122337e-01  6.0852402578705722e-01 7.6596291403250094e-01 3.5419701517243918e-01  6.4291843017872219e-01 6.8863404790211413e-01 5.0610030512273185e-01  4.6969417158208637e-01 2.2148810156360851e-01 2.4757537341794220e-01  4.7796478871218834e-01 1.7049438316940194e-01 3.4419086074793082e-01  6.0856703731178707e-01 7.6592449328536139e-01 3.5432261217060418e-01  4.7769766020900228e-01 1.2147233305793403e-01 3.6460601940206394e-01  5.1890834145594078e-01 1.0406852037579684e-01 6.1972377873197104e-01  5.3242567459711154e-01 3.0552123400278192e-01 5.8921471940557224e-01  6.0934784599039848e-01 7.6524421343402926e-01 3.5657900964225719e-01  6.1727959265429744e-01 7.5643758174331566e-01 3.8130843394464414e-01  4.6659813109555792e-01 2.0258940566858488e-01 2.3835841799533888e-01  4.9467324225024156e-01 4.8565993124832457e-01 2.1178717136114616e-01  6.2714341692829911e-01 7.3974188542210595e-01 4.1810406011621715e-01  6.1497076728519462e-01 7.5939554394197972e-01 3.7371174943048124e-01  6.2271206520684508e-01 3.6129148152555290e-01 8.3231680342552894e-01  6.0844978853999065e-01 4.6238998334753401e-01 7.3356760628071627e-01  5.3514412914231002e-01 1.0896074923689268e-01 6.9944798134519259e-01  6.1045034576064716e-01 7.6423064657230921e-01 3.5981287604485085e-01  6.1092988508895674e-01 6.9748830753945712e-01 4.4916822215230323e-01  4.6125826074954634e-01 1.6296260409357391e-01 2.2632573359457506e-01  6.1468290766713907e-01 7.5972060173107769e-01 3.7281722154342328e-01  6.2540806868831111e-01 7.4320684404589121e-01 4.1104972452579730e-01  5.8220228582504452e-01 7.5750202711159809e-01 3.0870605942776197e-01  5.3839066958807769e-01 1.2832274843717403e-01 7.2291522303974565e-01  6.3206351374663916e-01 7.2866195480097162e-01 4.3930500323862109e-01  6.0900770749339028e-01 7.6554744536420116e-01 3.5558861506277484e-01  6.2377359428488544e-01 7.4629367387759959e-01 4.0458628866438695e-01  5.0732434907286195e-01 1.0610411263378279e-01 5.5385044827706986e-01  6.1960876799157272e-01 6.6956522032557653e-01 5.0276824124527575e-01  5.4228352068594676e-01 5.7161687531432037e-01 3.9629219577065905e-01  6.0339694964194013e-01 2.7404096108097215e-01 8.5836249301155398e-01  6.1948286141531084e-01 7.5331408308402092e-01 3.8886524069277384e-01  6.1330515831391630e-01 7.6131595712683597e-01 3.6845421404218565e-01  6.3907799395785481e-01 7.0580625493317573e-01 4.7883446449279599e-01  4.6564118482433237e-01 1.3215720581927065e-01 2.7298105685498225e-01  6.4885303641285696e-01 6.6242701910564727e-01 5.4476405703766728e-01  4.6933893923946318e-01 1.8224517074757432e-01 2.6924906119688308e-01  6.1727483527673022e-01 7.5646705309000006e-01 3.8125996652244448e-01  6.3307316357