<?xml version="1.0"?>
<VTKFile type="UnstructuredGrid"  version="0.1"  >
<UnstructuredGrid>
<Piece  NumberOfPoints="4940" NumberOfCells="9650">
<Points>
<DataArray  type="Float64"  NumberOfComponents="3"  format="ascii">500 250 0  0 250 0  250 500 0  250 0 0  256.8885856082646 499.9050767557906 0  263.7719401218049 499.6203791065173 0  270.6448364229772 499.1461232471188 0  277.5020553257866 498.4826693209355 0  284.3383895508592 497.6305211460281 0  291.1486476865662 496.5903258312597 0  297.9276581259182 495.3628732847843 0  304.6702729675493 493.9490956196674 0  311.3713719748657 492.3500664368026 0  318.0258664141369 490.5670000199653 0  324.6287029687753 488.6012504015818 0  331.1748675330201 486.4543103455647 0  337.6593890460416 484.1278102064655 0  344.0773432429536 481.6235166997244 0  350.4238564271474 478.9433315480048 0  356.694109139292 476.0892900492477 0  362.88333985546 473.0635595140469 0  368.9868485575419 469.8684376402048 0  375.0000003153078 466.5063507640667 0  380.9182288257928 462.9798520074548 0  386.7370398729688 459.2916193419558 0  392.4520147244077 455.444453565817 0  398.0588135356345 451.4412761437442 0  403.5531785622926 447.285127045646 0  408.9309374414144 442.9791624087773 0  414.1880064015299 438.5266521049243 0  419.3203932989752 433.9309773069245 0  424.324200661095 429.1956279150535 0  429.1956286596235 424.3241998957182 0  433.9309780058756 419.3203925397119 0  438.5266527445345 414.1880056671062 0  442.9791630130591 408.9309367076756 0  447.2851276060475 403.5531778422888 0  451.4412766621026 398.0588128303826 0  455.4444540361634 392.4520140460735 0  459.2916197786263 386.7370392045948 0  462.9798524073514 380.9182281752347 0  466.5063511234856 374.9999996927758 0  469.8684379657123 368.9868479560565 0  473.0635598144817 362.8833392617846 0  476.0892903190255 356.6941085676214 0  478.9433317963513 350.4238558609745 0  481.6235169154735 344.0773427117675 0  484.12781039012 337.6593885555221 0  486.4543105028062 331.1748670749914 0  488.601250531677 324.6287025528375 0  490.5670001317469 318.0258660188321 0  492.3500665291326 311.3713716102628 0  493.949095695951 304.6702726271575 0  495.3628733416623 297.9276578347343 0  496.5903258712341 291.1486474470129 0  497.6305211749058 284.3383893426084 0  498.4826693388848 277.502055163614 0  499.1461232580606 270.6448362909296 0  499.6203791109319 263.7719400417897 0  499.9050767571306 256.8885855596534 0  499.9050767559877 243.1114143988867 0  499.6203791069493 236.2280598860241 0  499.1461232485393 229.3551635941651 0  498.4826693235677 222.4979446979962 0  497.6305211491849 215.6616104719064 0  496.5903258357701 208.8513523404629 0  495.3628732906988 202.0723419043604 0  493.9490956264813 195.3297270628552 0  492.3500664487791 188.6286280724281 0  490.5670000344809 181.9741336371959 0  488.6012504175981 175.3712970824318 0  486.4543103623226 168.8251325157939 0  484.1278102222298 162.3406109960628 0  481.6235167152198 155.9226567951971 0  478.9433315621651 149.5761436051346 0  476.0892900516498 143.3058908657982 0  473.063559513628 137.1166601437124 0  469.8684376406648 131.0131514433083 0  466.5063507675389 124.9999996907064 0  462.9798520124137 119.0817711822745 0  459.2916193464549 113.2629601339176 0  455.4444535642773 107.5479852733717 0  451.4412761528674 101.9411864767781 0  447.2851270583545 96.44682145403524 0  442.9791624165781 91.06906256805769 0  438.5266521117469 85.81199360630404 0  433.9309773156125 80.67960671046254 0  429.1956279150353 75.67579933888632 0  424.3241998888952 70.80437133373906 0  419.3203925223282 66.06902197812161 0  414.1880056411937 61.47334723289828 0  408.9309366751728 57.0208369601728 0  403.5531778009394 52.71487236176898 0  398.058812796452 48.55872331295853 0  392.4520140187753 44.55554594490843 0  386.7370391799677 40.70838020528396 0  380.9182281475119 37.02014757560744 0  374.9999996718656 33.49364886444181 0  368.9868479340393 30.13156202237255 0  362.8833392380029 26.93644017348339 0  356.6941085456942 23.91070967062674 0  350.4238558420009 21.0566681953261 0  344.0773426899492 18.37648307566465 0  337.6593885328982 15.87218960140942 0  331.1748670549786 13.54568949032341 0  324.6287025315056 11.39874946165088 0  318.0258660010876 9.432999863235466 0  311.3713716017894 7.649933468721599 0  304.6702726190621 6.050904302234756 0  297.9276578269805 4.637126656823085 0  291.148647441857 3.409674127905504 0  284.3383893425031 2.369478825079682 0  277.502055159398 1.517330660648639 0  270.6448362875833 0.853876741662134 0  263.7719400401456 0.3796208889774277 0  256.8885855592052 0.09492324285704967 0  243.1114143979462 0.09492324403817065 0  236.2280598850882 0.3796208931023841 0  229.3551635938215 0.8538767514891958 0  222.4979446968584 1.517330676558146 0  215.6616104703111 2.369478851036291 0  208.8513523382973 3.409674164591252 0  202.0723419066374 4.637126708856528 0  195.3297270659513 6.050904372824903 0  188.628628074828 7.649933550613184 0  181.9741336377093 9.432999965373938 0  175.3712970793675 11.39874958336037 0  168.8251325057572 13.54568964112298 0  162.340610986655 15.87218978129263 0  155.9226567874317 18.37648328793418 0  149.576143602509 21.05666843898663 0  143.3058908718157 23.91070994551046 0  137.1166601505524 26.93644048291054 0  131.0131514451933 30.13156235831508 0  124.9999996848412 33.49364923584736 0  119.0817711715717 37.0201479941652 0  113.2629601211624 40.70838066187849 0  107.5479852622251 44.55554644345162 0  101.9411864693332 48.55872385260452 0  96.44682143286516 52.71487295812284 0  91.06906254351222 57.02083760363669 0  85.81199358272519 61.4733479087879 0  80.67960667988106 66.06902271253972 0  75.67579930062769 70.80437212218331 0  70.80437129287643 75.67580015310926 0  66.06902193673014 80.67960752263491 0  61.47334718684866 85.81199441168215 0  57.02083692524275 91.0690633672404 0  52.71487232786438 96.44682224262129 0  48.55872328070024 101.941187247437 0  44.55554591578033 107.5479860232332 0  40.7083801742321 113.2629608675606 0  37.02014754791168 119.0817718975441 0  33.49364883372994 125.000000381329 0  30.13156199866361 131.0131521097709 0  26.9364401549829 137.1166607985551 0  23.91070965524918 143.3058914868915 0  21.05666818346614 149.576144185037 0  18.37648306853811 155.9226573275967 0  15.8721895918909 162.3406114925245 0  13.54568948170046 168.8251329701392 0  11.39874945301878 175.3712974960928 0  9.432999857087736 181.9741340206533 0  7.649933466342702 188.6286284076045 0  6.050904301250966 195.3297273853278 0  4.637126656808988 202.0723421730917 0  3.409674127767772 208.8513525589684 0  2.369478824521138 215.6616106615248 0  1.517330660909465 222.4979448382452 0  0.8538767414496533 229.355163714981 0  0.3796208887135322 236.2280599646376 0  0.09492324266324204 243.1114144478261 0  0.0949232442452228 256.8885856095658 0  0.3796208935834784 263.7719401236316 0  0.8538767530323526 270.6448364248016 0  1.517330679476544 277.5020553295092 0  2.369478854618649 284.3383895555228 0  3.409674170191892 291.1486476952655 0  4.6371267162381 297.9276581311522 0  6.050904381420935 304.6702729724059 0  7.649933562385399 311.3713719716595 0  9.43299997979841 318.0258664133013 0  11.3987495994252 324.6287029719946 0  13.54568965885832 331.174867545904 0  15.87218979367188 337.6593890464085 0  18.37648329843151 344.0773432384132 0  21.05666844777872 350.423856417535 0  23.91070995156048 356.6941091410045 0  26.93644048988043 362.8833398632205 0  30.13156235982007 368.9868485575877 0  33.49364924138357 375.0000003247478 0  37.0201480006036 380.9182288389023 0  40.70838066758398 386.7370398875706 0  44.55554644477201 392.4520147396792 0  48.55872386086904 398.0588135419111 0  52.71487295981296 403.5531785693063 0  57.02083760525949 408.9309374584583 0  61.47334790862246 414.1880064170849 0  66.06902271205095 419.320393319588 0  70.80437211216579 424.3242006890749 0  75.67580013809859 429.195628692521 0  80.6796075127923 433.930978054209 0  85.81199439754931 438.5266528008431 0  91.06906334717917 442.9791630582355 0  96.44682221438322 447.2851276501571 0  101.9411872243843 451.441276702356 0  107.5479859945825 455.4444540643537 0  113.2629608446994 459.2916198108319 0  119.0817718768376 462.9798524393601 0  125.0000003647644 466.5063511567065 0  131.0131521012763 469.8684379967393 0  137.1166607840049 473.0635598376539 0  143.3058914748804 476.0892903390826 0  149.5761441732679 478.9433318113714 0  155.9226573130112 481.6235169255377 0  162.3406114779862 484.1278104026658 0  168.8251329570439 486.4543105138039 0  175.3712974805475 488.601250542119 0  181.9741340135204 490.5670001408953 0  188.6286284005059 492.3500665318597 0  195.3297273788229 493.9490956972913 0  202.0723421640089 495.3628733414168 0  208.8513525529672 496.5903258712308 0  215.6616106544547 497.6305211744985 0  222.4979448327038 498.4826693384772 0  229.3551637102845 499.1461232581612 0  236.2280599621369 499.6203791111485 0  243.1114144470173 499.9050767573145 0  155.2373389820306 474.8197567317462 0  25.36256300907667 153.9152755065208 0  432.3709625126712 412.6214396304305 0  6.013151705810699 246.637913163471 0  246.6379131630491 493.986848294322 0  338.6995838441862 22.68244767887072 0  477.3175523131281 338.6995838660569 0  493.9868482700757 246.6379131399102 0  246.6201155078769 6.218451882810491 0  417.6179310263282 72.7156044707053 0  102.2232990934413 445.0100869616822 0  63.66330858966404 92.20354579482142 0  391.3105220491464 50.73522820883105 0  72.79295043967942 418.0702734974704 0  448.290574428537 108.25674339002 0  402.4604651193511 440.7462829841712 0  97.55317348421397 59.11376320116034 0  136.7376477664901 33.58246472647134 0  363.3288394375288 465.6947312928271 0  44.0678766556007 381.0860953771871 0  469.6905266180034 142.3890690100806 0  22.68244791668644 338.6995843487432 0  338.699584349159 477.317552078365 0  173.389488083762 18.6681884918202 0  483.4809734778481 179.7121987795732 0  13.50237455842738 306.4709525540879 0  305.9825168523021 487.24416992
[...]
<PointData  Vectors="f_12"> 
<DataArray  type="Float64"  Name="f_12"  NumberOfComponents="3" format="ascii">4.7703263770903920e-01 4.0356035253103623e-01 1.6321081017731201e-01  5.4451066823405581e-01 7.2249385576729164e-01 2.2866746269973154e-01  4.6427966416181321e-01 2.8938084039739437e-01 1.6403381176035264e-01  4.8700105965702334e-01 4.4493400024036173e-01 2.0289859886066033e-01  4.6410064377615790e-01 2.8745861353901880e-01 1.6418139308236565e-01  4.6394171849983257e-01 2.8573808972593773e-01 1.6431913377847199e-01  4.6378832034761008e-01 2.8406689479389247e-01 1.6445706903122598e-01  4.6365123195839025e-01 2.8256324084921997e-01 1.6458532937631271e-01  4.6352514011235540e-01 2.8117121425554686e-01 1.6470772794893868e-01  4.6341036189210655e-01 2.7989736691749778e-01 1.6482226949365608e-01  4.6330639358514775e-01 2.7873736964951018e-01 1.6492907815931515e-01  4.6321184795286530e-01 2.7767745019315421e-01 1.6502868789082004e-01  4.6312756009391276e-01 2.7672845501761845e-01 1.6511942771133498e-01  4.6305401088944087e-01 2.7589681404984762e-01 1.6520045872334668e-01  4.6299887921370519e-01 2.7527028756642397e-01 1.6526280612454392e-01  4.6293628837557899e-01 2.7455975006073524e-01 1.6533301999416916e-01  4.6290558282700539e-01 2.7420807868052000e-01 1.6536915322871854e-01  4.6287043845984444e-01 2.7380728000884003e-01 1.6540951304998491e-01  4.6284788920096953e-01 2.7354935087933152e-01 1.6543585337925099e-01  4.6283320471401401e-01 2.7338174267155568e-01 1.6545284779692235e-01  4.6282487701532504e-01 2.7328825645490484e-01 1.6546144594995088e-01  4.6283353109499531e-01 2.7338734129333275e-01 1.6545144400263828e-01  4.6285250684791629e-01 2.7360427043779606e-01 1.6542962031484809e-01  4.6287128758008456e-01 2.7382124618628972e-01 1.6540649015884445e-01  4.6290046728669143e-01 2.7415668933311999e-01 1.6537160956482744e-01  4.6294417005801186e-01 2.7465576997928320e-01 1.6532115596886279e-01  4.6300428872946287e-01 2.7533942486279217e-01 1.6525323749163606e-01  4.6306339584866313e-01 2.7601176839129549e-01 1.6518613512402441e-01  4.6313135173538722e-01 2.7678219161929934e-01 1.6511022471761894e-01  4.6322010672098907e-01 2.7778210295521893e-01 1.6501442726926477e-01  4.6331126556835250e-01 2.7880586527142542e-01 1.6491752425453296e-01  4.6341577941396406e-01 2.7997300068183323e-01 1.6480965005303075e-01  4.6353244553387507e-01 2.8126872024886768e-01 1.6469287585316558e-01  4.6365520199168353e-01 2.8262565564445113e-01 1.6457292050798764e-01  4.6380068051998363e-01 2.8422143579011844e-01 1.6443684979238068e-01  4.6395626307477394e-01 2.8591673196281631e-01 1.6429699752611299e-01  4.6411545732587067e-01 2.8764209859409651e-01 1.6415786411228236e-01  4.6429809172512931e-01 2.8960443809538872e-01 1.6400661637439798e-01  4.6450636066431339e-01 2.9182091631375845e-01 1.6384475812593990e-01  4.6472274850794920e-01 2.9410591649719986e-01 1.6368476921560016e-01  4.6494552500805492e-01 2.9644013221169141e-01 1.6352824881240544e-01  4.6519568944007550e-01 2.9903475261601592e-01 1.6336517217165511e-01  4.6547504359990560e-01 3.0190351696278889e-01 1.6319630046773992e-01  4.6576890629619644e-01 3.0489083848412601e-01 1.6303246265668492e-01  4.6609078842157026e-01 3.0812606294375028e-01 1.6287003686359258e-01  4.6643820658645535e-01 3.1158064461055107e-01 1.6271096429334844e-01  4.6681065624183982e-01 3.1524167593361058e-01 1.6255914185811299e-01  4.6720771952391260e-01 3.1909853106910702e-01 1.6241783483147706e-01  4.6765529273669776e-01 3.2338771459654214e-01 1.6228338478221960e-01  4.6813190553583839e-01 3.2789832728575630e-01 1.6216434181515266e-01  4.6864501981459156e-01 3.3268566456291510e-01 1.6206458541059016e-01  4.6920292620999782e-01 3.3782171978712838e-01 1.6198440195856162e-01  4.6980117812084821e-01 3.4324776794152406e-01 1.6193046792721183e-01  4.7046510127150720e-01 3.4917692986610221e-01 1.6190772265249048e-01  4.7118080479647528e-01 3.5546862737657442e-01 1.6192052715526872e-01  4.7194863245544100e-01 3.6210942942651764e-01 1.6197456321503376e-01  4.7279386716052402e-01 3.6929344607438147e-01 1.6207956003903223e-01  4.7370990741391050e-01 3.7694021529128208e-01 1.6224349026534049e-01  4.7469829484451925e-01 3.8505121967718886e-01 1.6245964065764104e-01  4.7573764821108117e-01 3.9343490034101464e-01 1.6274410451865606e-01  4.7829471473027285e-01 4.1331141937859489e-01 1.6366609984004318e-01  4.7969874388556955e-01 4.2387878998765621e-01 1.6427256798855197e-01  4.8121446072385382e-01 4.3501250186768237e-01 1.6500659105600368e-01  4.8291448293308098e-01 4.4719095450636676e-01 1.6589723708786530e-01  4.8476334675416005e-01 4.6006764828039071e-01 1.6696553793756211e-01  4.8678327885599815e-01 4.7373731146996756e-01 1.6821189527888478e-01  4.8899378021639417e-01 4.8820857149711294e-01 1.6969274834578255e-01  4.9142057643729348e-01 5.0355649399306912e-01 1.7142338800229986e-01  4.9406632338369788e-01 5.1966653873609381e-01 1.7342985334931368e-01  4.9694611199018690e-01 5.3648984576613779e-01 1.7574543186625813e-01  5.0014794770455850e-01 5.5433525838364583e-01 1.7846357462651105e-01  5.0361141735421300e-01 5.7269026194589201e-01 1.8156938400438183e-01  5.0739739035654030e-01 5.9163625339973480e-01 1.8513140074016129e-01  5.1157675674746739e-01 6.1124667612215711e-01 1.8927755265022456e-01  5.1614871513141714e-01 6.3117534413456633e-01 1.9403608116533771e-01  5.2112802911338008e-01 6.5113258884893621e-01 1.9949832094926301e-01  5.2654753628544937e-01 6.7086368460285928e-01 2.0574284993180469e-01  5.3244076995955691e-01 6.9004230139664102e-01 2.1292038121379273e-01  5.3885442645488568e-01 7.0833924054068431e-01 2.2119453913695025e-01  5.4579222624239665e-01 7.2527551841607196e-01 2.3068257092276573e-01  5.5315624453156109e-01 7.4022127190774523e-01 2.4140421901133668e-01  5.6121752180137963e-01 7.5307115805720970e-01 2.5406585492381867e-01  5.6977189640571613e-01 7.6301875022665711e-01 2.6863041266432014e-01  5.7884766379265740e-01 7.6971595676255722e-01 2.8552888233467050e-01  5.8835356203071587e-01 7.7259001119242676e-01 3.0517088796419845e-01  5.9818869386973450e-01 7.7119000663380644e-01 3.2810399877456670e-01  6.0822883088283952e-01 7.6500380550449942e-01 3.5508061453459117e-01  6.1841815684667001e-01 7.5346498919880456e-01 3.8717674502764099e-01  6.2938795940353931e-01 7.3349513211811590e-01 4.2955854405422522e-01  6.4115241959078628e-01 6.9006985843047663e-01 5.0131145678416378e-01  6.4625553836700078e-01 5.8711306611580916e-01 6.3924101080499629e-01  6.2106708032696845e-01 3.6916740905781370e-01 8.3682677077240775e-01  5.4644829022176356e-01 1.4080992377957011e-01 7.5783343683666338e-01  4.8416470090041547e-01 9.6534831904091956e-02 4.1709233035770193e-01  4.6327848278439798e-01 1.6091657644323412e-01 2.4189263769413985e-01  4.7111190466133379e-01 3.1787471324667110e-01 1.9430304842178242e-01  4.9954492907892961e-01 5.3392955866766501e-01 2.0181036905035560e-01  5.3842649390201269e-01 6.9162505473595204e-01 2.4472641169728174e-01  5.7424871808573263e-01 7.5289367352070002e-01 2.9760085241761147e-01  6.0067591933868436e-01 7.5573365058709663e-01 3.5353100270563442e-01  6.1785078663139437e-01 7.3175339418891483e-01 4.1448862371919315e-01  6.2468617199434329e-01 7.1882853091371046e-01 4.4137970902522133e-01  6.2485212389451406e-01 7.1628236369816189e-01 4.4591522178666437e-01  6.1709809530301196e-01 7.3226607985776238e-01 4.1330521147016086e-01  5.9771423251060141e-01 7.5053569564404155e-01 3.5480639512853374e-01  5.6420954316687721e-01 7.4026634478627995e-01 2.8329173703698401e-01  5.2135509598235785e-01 6.3980643364049639e-01 2.2041192812727703e-01  4.8326807196435612e-01 4.3454135953637552e-01 1.8375422996555488e-01  4.6253041787088489e-01 2.4491970184328837e-01 1.8442502954900084e-01  4.5930941642622442e-01 1.4122119605174333e-01 2.2576117874759816e-01  4.6774959757682477e-01 9.5194654932235334e-02 3.0580478289640661e-01  4.8441842969259602e-01 8.2920581182071462e-02 4.2170577456544950e-01  5.1207717985138224e-01 9.7608848866203093e-02 5.9126035566737412e-01  5.6470464747469051e-01 2.0301035741841647e-01 8.1018225587685011e-01  6.0470381045658517e-01 4.8176558208365722e-01 6.9876356701861053e-01  5.6262759913298599e-01 6.5472430878903698e-01 3.7342322105039183e-01  4.6080895914708841e-01 2.2763611427794009e-01 1.8263685248143119e-01  4.5480965181751704e-01 1.4072582705650416e-01 1.9624801772758160e-01  4.5751139293152737e-01 1.4029118582558534e-01 2.1275436946315338e-01  4.5806918906982874e-01 1.3531314194917937e-01 2.1902864466303260e-01  4.5839735844374785e-01 1.3084299104784744e-01 2.2364689551309536e-01  4.5867622172742678e-01 1.2820180156992125e-01 2.2687685777011460e-01  4.5879932399799112e-01 1.2706244161588326e-01 2.2829117943160446e-01  4.5877984173237280e-01 1.2723565096833941e-01 2.2807185019974255e-01  4.5861319266198397e-01 1.2878493422480555e-01 2.2615461921560367e-01  4.5835037366399628e-01 1.3137904051597823e-01 2.2304827692667936e-01  4.5794212189616945e-01 1.3635322478509565e-01 2.1769127407984679e-01  4.5754008569997051e-01 1.4340219687649450e-01 2.1115072794729806e-01  4.5692052340873723e-01 1.5386012649725592e-01 2.0172362779708528e-01  4.5695153288513923e-01 1.8189079027057481e-01 1.8555894173188800e-01  4.6520002316800596e-01 2.8864204463213539e-01 1.7523664328389055e-01  5.1196801077371767e-01 5.7481687815948934e-01 2.3504222367193367e-01  5.8766181770004622e-01 6.5535990652466170e-01 4.5041407139974504e-01  6.0670426677846123e-01 4.2176012629896331e-01 7.6697280788170186e-01  5.5265372890393305e-01 1.6610382421776584e-01 7.7813638401049845e-01  5.0254360033223477e-01 9.0403467765363149e-02 5.3737351797546862e-01  4.7966432752814692e-01 8.4258814225772027e-02 3.9044985660227377e-01  4.6756625292905929e-01 9.4312998693961592e-02 3.0527886032020635e-01  4.6013666415977800e-01 1.1868752820600147e-01 2.4386237325340449e-01  4.5734873135231308e-01 1.6524155366262053e-01 1.9969669730289738e-01  4.6089113183825431e-01 2.4320649162180558e-01 1.7486614098574074e-01  4.7149516114313744e-01 3.5420259612958122e-01 1.6838853790028971e-01  4.8696874672916679e-01 4.7458248620736676e-01 1.7486518248208463e-01  5.0202734493802614e-01 5.6642063430155520e-01 1.8633420463315195e-01  5.1199595660178632e-01 6.1447741860224181e-01 1.9619249760527835e-01  5.1412800814997472e-01 6.2259865025425409e-01 1.9913283743525459e-01  5.0836801558730993e-01 5.9465142620389144e-01 1.9488466489611572e-01  4.9557182160167229e-01 5.2630805361310284e-01 1.8349299783710726e-01  4.7995295103650915e-01 4.2095858295321953e-01 1.7476942962858785e-01  4.6470477210923355e-01 2.8974200920013282e-01 1.7283910683740566e-01  4.5880379367956409e-01 1.7964837571345615e-01 2.0126570055454757e-01  4.6462685851518565e-01 1.1208369525793875e-01 2.7934481062460548e-01  4.8962083065427686e-01 8.7876821704213695e-02 4.5615454810423750e-01  5.4282891538199407e-01 1.2940191069776241e-01 7.4097286259294748e-01  6.0881065484523178e-01 3.0483281484129060e-01 8.6033966495995851e-01  6.4418311120224669e-01 5.1781024202470582e-01 7.1446184912737709e-01  6.4847518665156079e-01 6.3998275452725939e-01 5.7400916064848029e-01  6.4140201581920453e-01 6.9655482562363114e-01 4.9366136752629891e-01  6.3327305325053196e-01 7.2525426695661444e-01 4.4550141608359489e-01  6.2609410771015384e-01 7.4149153807520807e-01 4.1429651931360123e-01  6.1927102817507151e-01 7.5315074147092009e-01 3.8879914770499879e-01  6.1237122703082880e-01 7.6193413162938239e-01 3.6614527114514589e-01  6.0527023214355502e-01 7.6815484059657380e-01 3.4557183589781398e-01  5.9846393262547171e-01 7.7167251313628660e-01 3.2794834990655464e-01  5.9159945844085304e-01 7.7308016703740234e-01 3.1175961629156496e-01  5.8493036908424700e-01 7.7243194054565700e-01 2.9725764476106104e-01  5.7831547291984309e-01 7.6974134898465918e-01 2.8401955530664758e-01  5.7200230618513048e-01 7.6532773141753385e-01 2.7220047276077514e-01  5.6599157699130509e-01 7.5931434869945691e-01 2.6167946631005035e-01  5.6022411945344230e-01 7.5185333702706425e-01 2.5215005402054719e-01  5.5470766679615735e-01 7.4309371007911940e-01 2.4352787984305285e-01  5.4947249576514368e-01 7.3325186880579418e-01 2.3572385767247087e-01  5.3983173763045644e-01 7.1102040956038082e-01 2.2229608140489701e-01  5.3542700511661112e-01 6.9897797001344375e-01 2.1654000240874546e-01  5.3124165902441534e-01 6.8639979126076955e-01 2.1128751963641340e-01  5.2731386677367398e-01 6.7354495025050432e-01 2.0652945672488190e-01  5.2361842272372261e-01 6.6049959716797912e-01 2.0221340310314712e-01  5.2014285050039000e-01 6.4736643894312496e-01 1.9829238272130589e-01  5.1687283120498262e-01 6.3422150207722816e-01 1.9472717135958659e-01  5.1380195180742161e-01 6.2116610908674463e-01 1.9148622977412666e-01  5.1091352742748930e-01 6.0824337290811148e-01 1.8853695791864913e-01  5.0819699459930978e-01 5.9550668993346445e-01 1.8585133168398571e-01  5.0564154376981263e-01 5.8299699582055509e-01 1.8340985968660461e-01  5.0325064067110592e-01 5.7082471355475239e-01 1.8119388861807509e-01  5.0097516755439730e-01 5.5880594481128454e-01 1.7915456682719538e-01  4.9882999839711972e-01 5.4708659889747879e-01 1.7729704608115168e-01  4.9682579298336232e-01 5.3578091464937394e-01 1.7562020616128371e-01  4.9489889636759810e-01 5.2458317380858943e-01 1.7406603160234949e-01  4.9308562772954079e-01 5.1374727275932452e-01 1.7265764559255267e-01  4.9140393674575567e-01 5.0342667244543582e-01 1.7139688131722497e-01  4.8979862199910068e-01 4.9332776979722942e-01 1.7024877015594833e-01  4.8827862782794784e-01 4.8354388433095513e-01 1.6919859470923207e-01  4.8683796204488711e-01 4.7406072474864691e-01 1.6824969421535185e-01  4.8547475976531579e-01 4.6489325247214236e-01 1.6739378801849875e-01  4.8417857560545335e-01 4.5599945342883103e-01 1.6661833831554812e-01  4.8294455516436718e-01 4.4736429854341681e-01 1.6591960761895955e-01  4.8178673189565702e-01 4.3910984786235374e-01 1.6530155951202574e-01  4.8068263464603284e-01 4.3109446353068903e-01 1.6474742392249009e-01  4.7962733997601975e-01 4.2330256330895472e-01 1.6425256255471909e-01  4.7864111963230860e-01 4.1589417057320133e-01 1.6382406061532795e-01  4.7769302685442183e-01 4.0865563402931693e-01 1.6344582689265119e-01  4.7679243540294136e-01 4.0167225754382069e-01 1.6311583480859368e-01  4.7594042903885214e-01 3.9496244900914002e-01 1.6283569232749054e-01  4.7513062551953406e-01 3.8848855267370269e-01 1.6259884562558641e-01  4.7436176147702519e-01 3.8225166567852886e-01 1.6240271046476962e-01  4.7362851464957750e-01 3.7621763298932370e-01 1.6224412165021476e-01  4.7292542186910463e-01 3.7035070940657111e-01 1.6211890331181997e-01  4.7226981674279095e-01 3.6480436456740339e-01 1.6202859283261767e-01  4.7164975784422863e-01 3.5948692080498412e-01 1.6196891131527280e-01  4.7104503529572994e-01 3.5423406328982660e-01 1.6193451714007448e-01  4.7047966557602328e-01 3.4925797106132433e-01 1.6192688076151968e-01  4.6994930258929535e-01 3.4452883448445287e-01 1.6194339298506172e-01  4.6944140785987387e-01 3.3994475446682298e-01 1.6198031354461068e-01  4.6896148038930463e-01 3.3556043070563968e-01 1.6203575716799998e-01  4.6850245773154525e-01 3.3131531685744448e-01 1.6211011864277775e-01  4.6807605222659404e-01 3.2732659851248536e-01 1.6219697089442559e-01  4.6766703321370207e-01 3.2345476876820844e-01 1.6230004808395648e-01  4.6728321034379422e-01 3.1978040377581396e-01 1.6241384996473465e-01  4.6691801065646227e-01 3.1624639088381667e-01 1.6253781984408505e-01  4.6656922966852449e-01 3.1283475475334366e-01 1.6267220370542326e-01  4.6624779151720669e-01 3.0965401965275557e-01 1.6281311364284037e-01  4.6594664485465248e-01 3.0664409637645629e-01 1.6295769064668186e-01  4.6565605685605566e-01 3.0371158629002271e-01 1.6310986736184471e-01  4.6538734733117948e-01 3.0097217499983964e-01 1.6326321729152626e-01  4.6513801326441623e-01 2.9840505452062027e-01 1.6341744347791559e-01  4.6490217527387440e-01 2.9595569345392475e-01 1.6357259217127579e-01  4.6468022388242847e-01 2.9363038284246151e-01 1.6372833930209646e-01  4.6447645226177992e-01 2.9147686329156025e-01 1.6387981225459136e-01  4.6882426181837228e-01 3.3428952130127715e-01 1.6206006721940577e-01  6.4033472798058755e-01 6.9805887595349125e-01 4.9011067478450338e-01  4.6381803008015726e-01 2.8440213889823407e-01 1.6442621161418802e-01  5.4756518017806111e-01 7.2923951679396537e-01 2.3300675541857416e-01  4.6446074415190886e-01 2.9130328625570678e-01 1.6389585782661392e-01  6.2566686780954328e-01 6.1421017724826255e-01 5.8363703410750190e-01  4.6715128030044983e-01 3.1853599932353499e-01 1.6244661819807055e-01  4.7787499829986591e-01 4.1009559097658904e-01 1.6351121582432609e-01  4.6945330083049797e-01 3.1922562779612917e-01 1.8300441980622040e-01  6.3718698508606197e-01 7.0255502517639423e-01 4.8060706562421479e-01  4.7412260948201079e-01 3.8028582864017840e-01 1.6235207412466865e-01  5.3465341740785643e-01 6.4610195430214112e-01 2.7021723074159132e-01  4.6745397511419473e-01 1.6060724169376236e-01 2.7243802307491499e-01  4.7924609446039729e-01 4.2044467716893824e-01 1.6408843117132743e-01  5.6638720157666356e-01 7.5947217994225158e-01 2.6279819944684529e-01  4.6317111039224818e-01 2.7722068351622248e-01 1.6507269873122604e-01  4.6512809364045404e-01 2.6099025090143441e-01 1.9110724101205578e-01  6.0449739287470861e-01 5.0979577066822768e-01 6.6806867865932384e-01  4.6291009401697941e-01 2.7425573246341850e-01 1.6536664094122883e-01  4.8765112724875409e-01 4.7942825091466862e-01 1.6878641220121207e-01  5.2442561091171447e-01 6.6333560277745995e-01 2.0329031150989477e-01  5.0016981912999847e-01 5.5445205598610481e-01 1.7845952517269831e-01  4.6295955168116304e-01 2.7481659622215482e-01 1.6531116636519241e-01  4.5755973893480656e-01 1.4254441085372294e-01 2.1175605413274107e-01  4.9929815057128379e-01 5.4967070710472987e-01 1.7775028365902198e-01  5.1282434103900787e-01 6.1683418466173356e-01 1.9049711403735770e-01  4.6326004533391046e-01 2.7821007261332270e-01 1.6498242202613930e-01  4.6649757897690208e-01 3.1212140450475695e-01 1.6270687469477998e-01  5.9587339112953031e-01 7.7233528404899943e-01 3.2181914083430824e-01  4.6286677596702480e-01 2.2480905660800701e-01 1.9882781432928576e-01  4.7030845915678438e-01 3.4777200880458398e-01 1.6191918889617729e-01  4.6488824957410402e-01 2.9582945311609748e-01 1.6357469031663580e-01  4.5862211922011470e-01 1.2884951053148175e-01 2.2616365232897298e-01  4.8836961071782914e-01 4.8414442017755921e-01 1.6928370611556806e-01  5.2591469993994433e-01 6.6869168977838900e-01 2.0490038417227696e-01  4.6366550089818032e-01 2.8271202374691873e-01 1.6457648554764881e-01  5.7617751670081718e-01 7.1628976496764907e-01 3.4459831406316960e-01  4.9685604671503092e-01 1.0058103833230050e-01 4.9505184271302655e-01  4.6534233389215213e-01 3.0050272648837961e-01 1.6329484959671403e-01  4.7088887817941355e-01 3.5286135481857905e-01 1.6193373599338737e-01  5.6921141064149605e-01 7.6267994761767222e-01 2.6731510532535263e-01  5.2002031536892623e-01 1.1322376469761741e-01 6.3661786316167679e-01  4.7336038433091160e-01 3.7401884288592135e-01 1.6218743610917580e-01  4.6303257248997459e-01 2.7564876967020951e-01 1.6522805359858012e-01  4.6856744187267518e-01 3.3195000701926219e-01 1.6208802117334037e-01  4.5781211976738251e-01 1.3919799593941171e-01 2.1525325552383742e-01  5.6597825997792495e-01 7.0803859024071103e-01 3.2493130952202182e-01  4.8244725787315124e-01 4.4385550010969843e-01 1.6566133147204307e-01  6.0461122963658998e-01 7.6764392173397000e-01 3.4510404018215191e-01  4.6756494392638709e-01 3.2247303081596174e-01 1.6233323079928619e-01  4.6432818899797340e-01 2.8991346438412413e-01 1.6399005929936813e-01  4.8249737450945918e-01 4.4418434277354402e-01 1.6568342085977500e-01  4.6802259128312701e-01 1.0103563123055663e-01 3.0448086675348873e-01  4.9234467030444756e-01 5.0922463450049349e-01 1.7210464888031970e-01  6.1688446010014075e-01 7.5618584979610626e-01 3.8107425849503357e-01  4.6574003883158271e-01 3.0458667099785408e-01 1.6305506776638812e-01  4.7650458352