<?xml version="1.0"?>
<VTKFile type="UnstructuredGrid"  version="0.1"  >
<UnstructuredGrid>
<Piece  NumberOfPoints="4940" NumberOfCells="9650">
<Points>
<DataArray  type="Float64"  NumberOfComponents="3"  format="ascii">500 250 0  0 250 0  250 500 0  250 0 0  256.8885856082646 499.9050767557906 0  263.7719401218049 499.6203791065173 0  270.6448364229772 499.1461232471188 0  277.5020553257866 498.4826693209355 0  284.3383895508592 497.6305211460281 0  291.1486476865662 496.5903258312597 0  297.9276581259182 495.3628732847843 0  304.6702729675493 493.9490956196674 0  311.3713719748657 492.3500664368026 0  318.0258664141369 490.5670000199653 0  324.6287029687753 488.6012504015818 0  331.1748675330201 486.4543103455647 0  337.6593890460416 484.1278102064655 0  344.0773432429536 481.6235166997244 0  350.4238564271474 478.9433315480048 0  356.694109139292 476.0892900492477 0  362.88333985546 473.0635595140469 0  368.9868485575419 469.8684376402048 0  375.0000003153078 466.5063507640667 0  380.9182288257928 462.9798520074548 0  386.7370398729688 459.2916193419558 0  392.4520147244077 455.444453565817 0  398.0588135356345 451.4412761437442 0  403.5531785622926 447.285127045646 0  408.9309374414144 442.9791624087773 0  414.1880064015299 438.5266521049243 0  419.3203932989752 433.9309773069245 0  424.324200661095 429.1956279150535 0  429.1956286596235 424.3241998957182 0  433.9309780058756 419.3203925397119 0  438.5266527445345 414.1880056671062 0  442.9791630130591 408.9309367076756 0  447.2851276060475 403.5531778422888 0  451.4412766621026 398.0588128303826 0  455.4444540361634 392.4520140460735 0  459.2916197786263 386.7370392045948 0  462.9798524073514 380.9182281752347 0  466.5063511234856 374.9999996927758 0  469.8684379657123 368.9868479560565 0  473.0635598144817 362.8833392617846 0  476.0892903190255 356.6941085676214 0  478.9433317963513 350.4238558609745 0  481.6235169154735 344.0773427117675 0  484.12781039012 337.6593885555221 0  486.4543105028062 331.1748670749914 0  488.601250531677 324.6287025528375 0  490.5670001317469 318.0258660188321 0  492.3500665291326 311.3713716102628 0  493.949095695951 304.6702726271575 0  495.3628733416623 297.9276578347343 0  496.5903258712341 291.1486474470129 0  497.6305211749058 284.3383893426084 0  498.4826693388848 277.502055163614 0  499.1461232580606 270.6448362909296 0  499.6203791109319 263.7719400417897 0  499.9050767571306 256.8885855596534 0  499.9050767559877 243.1114143988867 0  499.6203791069493 236.2280598860241 0  499.1461232485393 229.3551635941651 0  498.4826693235677 222.4979446979962 0  497.6305211491849 215.6616104719064 0  496.5903258357701 208.8513523404629 0  495.3628732906988 202.0723419043604 0  493.9490956264813 195.3297270628552 0  492.3500664487791 188.6286280724281 0  490.5670000344809 181.9741336371959 0  488.6012504175981 175.3712970824318 0  486.4543103623226 168.8251325157939 0  484.1278102222298 162.3406109960628 0  481.6235167152198 155.9226567951971 0  478.9433315621651 149.5761436051346 0  476.0892900516498 143.3058908657982 0  473.063559513628 137.1166601437124 0  469.8684376406648 131.0131514433083 0  466.5063507675389 124.9999996907064 0  462.9798520124137 119.0817711822745 0  459.2916193464549 113.2629601339176 0  455.4444535642773 107.5479852733717 0  451.4412761528674 101.9411864767781 0  447.2851270583545 96.44682145403524 0  442.9791624165781 91.06906256805769 0  438.5266521117469 85.81199360630404 0  433.9309773156125 80.67960671046254 0  429.1956279150353 75.67579933888632 0  424.3241998888952 70.80437133373906 0  419.3203925223282 66.06902197812161 0  414.1880056411937 61.47334723289828 0  408.9309366751728 57.0208369601728 0  403.5531778009394 52.71487236176898 0  398.058812796452 48.55872331295853 0  392.4520140187753 44.55554594490843 0  386.7370391799677 40.70838020528396 0  380.9182281475119 37.02014757560744 0  374.9999996718656 33.49364886444181 0  368.9868479340393 30.13156202237255 0  362.8833392380029 26.93644017348339 0  356.6941085456942 23.91070967062674 0  350.4238558420009 21.0566681953261 0  344.0773426899492 18.37648307566465 0  337.6593885328982 15.87218960140942 0  331.1748670549786 13.54568949032341 0  324.6287025315056 11.39874946165088 0  318.0258660010876 9.432999863235466 0  311.3713716017894 7.649933468721599 0  304.6702726190621 6.050904302234756 0  297.9276578269805 4.637126656823085 0  291.148647441857 3.409674127905504 0  284.3383893425031 2.369478825079682 0  277.502055159398 1.517330660648639 0  270.6448362875833 0.853876741662134 0  263.7719400401456 0.3796208889774277 0  256.8885855592052 0.09492324285704967 0  243.1114143979462 0.09492324403817065 0  236.2280598850882 0.3796208931023841 0  229.3551635938215 0.8538767514891958 0  222.4979446968584 1.517330676558146 0  215.6616104703111 2.369478851036291 0  208.8513523382973 3.409674164591252 0  202.0723419066374 4.637126708856528 0  195.3297270659513 6.050904372824903 0  188.628628074828 7.649933550613184 0  181.9741336377093 9.432999965373938 0  175.3712970793675 11.39874958336037 0  168.8251325057572 13.54568964112298 0  162.340610986655 15.87218978129263 0  155.9226567874317 18.37648328793418 0  149.576143602509 21.05666843898663 0  143.3058908718157 23.91070994551046 0  137.1166601505524 26.93644048291054 0  131.0131514451933 30.13156235831508 0  124.9999996848412 33.49364923584736 0  119.0817711715717 37.0201479941652 0  113.2629601211624 40.70838066187849 0  107.5479852622251 44.55554644345162 0  101.9411864693332 48.55872385260452 0  96.44682143286516 52.71487295812284 0  91.06906254351222 57.02083760363669 0  85.81199358272519 61.4733479087879 0  80.67960667988106 66.06902271253972 0  75.67579930062769 70.80437212218331 0  70.80437129287643 75.67580015310926 0  66.06902193673014 80.67960752263491 0  61.47334718684866 85.81199441168215 0  57.02083692524275 91.0690633672404 0  52.71487232786438 96.44682224262129 0  48.55872328070024 101.941187247437 0  44.55554591578033 107.5479860232332 0  40.7083801742321 113.2629608675606 0  37.02014754791168 119.0817718975441 0  33.49364883372994 125.000000381329 0  30.13156199866361 131.0131521097709 0  26.9364401549829 137.1166607985551 0  23.91070965524918 143.3058914868915 0  21.05666818346614 149.576144185037 0  18.37648306853811 155.9226573275967 0  15.8721895918909 162.3406114925245 0  13.54568948170046 168.8251329701392 0  11.39874945301878 175.3712974960928 0  9.432999857087736 181.9741340206533 0  7.649933466342702 188.6286284076045 0  6.050904301250966 195.3297273853278 0  4.637126656808988 202.0723421730917 0  3.409674127767772 208.8513525589684 0  2.369478824521138 215.6616106615248 0  1.517330660909465 222.4979448382452 0  0.8538767414496533 229.355163714981 0  0.3796208887135322 236.2280599646376 0  0.09492324266324204 243.1114144478261 0  0.0949232442452228 256.8885856095658 0  0.3796208935834784 263.7719401236316 0  0.8538767530323526 270.6448364248016 0  1.517330679476544 277.5020553295092 0  2.369478854618649 284.3383895555228 0  3.409674170191892 291.1486476952655 0  4.6371267162381 297.9276581311522 0  6.050904381420935 304.6702729724059 0  7.649933562385399 311.3713719716595 0  9.43299997979841 318.0258664133013 0  11.3987495994252 324.6287029719946 0  13.54568965885832 331.174867545904 0  15.87218979367188 337.6593890464085 0  18.37648329843151 344.0773432384132 0  21.05666844777872 350.423856417535 0  23.91070995156048 356.6941091410045 0  26.93644048988043 362.8833398632205 0  30.13156235982007 368.9868485575877 0  33.49364924138357 375.0000003247478 0  37.0201480006036 380.9182288389023 0  40.70838066758398 386.7370398875706 0  44.55554644477201 392.4520147396792 0  48.55872386086904 398.0588135419111 0  52.71487295981296 403.5531785693063 0  57.02083760525949 408.9309374584583 0  61.47334790862246 414.1880064170849 0  66.06902271205095 419.320393319588 0  70.80437211216579 424.3242006890749 0  75.67580013809859 429.195628692521 0  80.6796075127923 433.930978054209 0  85.81199439754931 438.5266528008431 0  91.06906334717917 442.9791630582355 0  96.44682221438322 447.2851276501571 0  101.9411872243843 451.441276702356 0  107.5479859945825 455.4444540643537 0  113.2629608446994 459.2916198108319 0  119.0817718768376 462.9798524393601 0  125.0000003647644 466.5063511567065 0  131.0131521012763 469.8684379967393 0  137.1166607840049 473.0635598376539 0  143.3058914748804 476.0892903390826 0  149.5761441732679 478.9433318113714 0  155.9226573130112 481.6235169255377 0  162.3406114779862 484.1278104026658 0  168.8251329570439 486.4543105138039 0  175.3712974805475 488.601250542119 0  181.9741340135204 490.5670001408953 0  188.6286284005059 492.3500665318597 0  195.3297273788229 493.9490956972913 0  202.0723421640089 495.3628733414168 0  208.8513525529672 496.5903258712308 0  215.6616106544547 497.6305211744985 0  222.4979448327038 498.4826693384772 0  229.3551637102845 499.1461232581612 0  236.2280599621369 499.6203791111485 0  243.1114144470173 499.9050767573145 0  155.2373389820306 474.8197567317462 0  25.36256300907667 153.9152755065208 0  432.3709625126712 412.6214396304305 0  6.013151705810699 246.637913163471 0  246.6379131630491 493.986848294322 0  338.6995838441862 22.68244767887072 0  477.3175523131281 338.6995838660569 0  493.9868482700757 246.6379131399102 0  246.6201155078769 6.218451882810491 0  417.6179310263282 72.7156044707053 0  102.2232990934413 445.0100869616822 0  63.66330858966404 92.20354579482142 0  391.3105220491464 50.73522820883105 0  72.79295043967942 418.0702734974704 0  448.290574428537 108.25674339002 0  402.4604651193511 440.7462829841712 0  97.55317348421397 59.11376320116034 0  136.7376477664901 33.58246472647134 0  363.3288394375288 465.6947312928271 0  44.0678766556007 381.0860953771871 0  469.6905266180034 142.3890690100806 0  22.68244791668644 338.6995843487432 0  338.699584349159 477.317552078365 0  173.389488083762 18.6681884918202 0  483.4809734778481 179.7121987795732 0  13.50237455842738 306.4709525540879 0  305.9825168523021 487.24416992
[...]
<PointData  Vectors="f_12"> 
<DataArray  type="Float64"  Name="f_12"  NumberOfComponents="3" format="ascii">6.2735821127421298e-01 3.7213213486011826e-01 8.3035497321423601e-01  4.6873508261723423e-01 2.5635238782289138e-01 2.1665800584395256e-01  6.4544658573776781e-01 4.9270056835162257e-01 7.4296661147660137e-01  4.7975039817162379e-01 3.8881040818447699e-01 1.9243856236961532e-01  6.4563767471932298e-01 4.9455704464314920e-01 7.4125521277526429e-01  6.4580763893803572e-01 4.9623438744491727e-01 7.3969960631285303e-01  6.4596881027388009e-01 4.9784582378983605e-01 7.3819739551109931e-01  6.4611274521745643e-01 4.9930385490241513e-01 7.3683174371992322e-01  6.4624385785108240e-01 5.0064882256820176e-01 7.3556642901846014e-01  6.4636225613957610e-01 5.0187680004907542e-01 7.3440637414102428e-01  6.4646849923906669e-01 5.0299001010992883e-01 7.3335104495131487e-01  6.4656381273717745e-01 5.0399820105466331e-01 7.3239212839151391e-01  6.4664768117063520e-01 5.0489311226328526e-01 7.3153834504741710e-01  6.4671982945566231e-01 5.0566893400430124e-01 7.3079642028944902e-01  6.4677433341326207e-01 5.0625998224150415e-01 7.3022981850815050e-01  6.4683198960628741e-01 5.0688529452898590e-01 7.2962953446667866e-01  6.4686121364997995e-01 5.0720635507753642e-01 7.2932059327344179e-01  6.4689120239437548e-01 5.0753413473010056e-01 7.2900512301897913e-01  6.4690835829706428e-01 5.0772231549323588e-01 7.2882381950124486e-01  6.4691655158079797e-01 5.0781121329480827e-01 7.2873815710721390e-01  6.4691693588374788e-01 5.0781298848959744e-01 7.2873619239339638e-01  6.4690076120114726e-01 5.0763451807106641e-01 7.2890805668247804e-01  6.4687344801994640e-01 5.0733426370351853e-01 7.2919722406258136e-01  6.4684338168943800e-01 5.0700237906139733e-01 7.2951631714744747e-01  6.4680197393533456e-01 5.0654770770328739e-01 7.2995317721299990e-01  6.4674549162009554e-01 5.0593334817508151e-01 7.3054232210502634e-01  6.4667246954206525e-01 5.0514545678690270e-01 7.3129628264101731e-01  6.4659674550039314e-01 5.0433204640489149e-01 7.3207285640226738e-01  6.4651003193120304e-01 5.0340824960640285e-01 7.3295235897571065e-01  6.4640243321756274e-01 5.0227497495804430e-01 7.3402790904035253e-01  6.4628857434285236e-01 5.0108679966060787e-01 7.3515170959355480e-01  6.4615902732199104e-01 4.9975148560672489e-01 7.3640933631385330e-01  6.4601470624399937e-01 4.9828148530217620e-01 7.3778821378592851e-01  6.4586013338956560e-01 4.9672639606636221e-01 7.3923982617248063e-01  6.4568075530440550e-01 4.9494976231667226e-01 7.4088909072527598e-01  6.4548695005485246e-01 4.9305779517419623e-01 7.4263578190700419e-01  6.4528364537041150e-01 4.9110126457613823e-01 7.4443061474083838e-01  6.4505312418999605e-01 4.8892194091412189e-01 7.4641612395941859e-01  6.4479272610285654e-01 4.8650627627133880e-01 7.4860066457257557e-01  6.4451712998516075e-01 4.8399449329223543e-01 7.5085370210820290e-01  6.4422690280432826e-01 4.8139672988437521e-01 7.5316376155198950e-01  6.4390281919417169e-01 4.7855452782571267e-01 7.5566750821380158e-01  6.4354269836381928e-01 4.7546039915627392e-01 7.5836567487631878e-01  6.4315765569500494e-01 4.7222272487972305e-01 7.6115767364670384e-01  6.4273461327288384e-01 4.6874524308987858e-01 7.6412042411598446e-01  6.4227516503338411e-01 4.6505189599811503e-01 7.6722605908048669e-01  6.4177789408242647e-01 4.6114723924076845e-01 7.7046309308776273e-01  6.4124153031173614e-01 4.5703455860313696e-01 7.7382260127798097e-01  6.4064046825939103e-01 4.5254423346046052e-01 7.7742603382040609e-01  6.3999368521160482e-01 4.4783038846356360e-01 7.8114253838488334e-01  6.3928997020835499e-01 4.4283977795076923e-01 7.8499632146526865e-01  6.3852210226236128e-01 4.3753348446125578e-01 7.8900747909897007e-01  6.3768918211116010e-01 4.3193704087192153e-01 7.9313506772812026e-01  6.3676598350601599e-01 4.2590723528447222e-01 7.9746635719701919e-01  6.3576211514450864e-01 4.1953880305119340e-01 8.0190569023609370e-01  6.3467352301260427e-01 4.1283522766161079e-01 8.0642762745039320e-01  6.3347271228251101e-01 4.0566446181365573e-01 8.1108771803289825e-01  6.3216245356638312e-01 3.9807903192952154e-01 8.1581951992462975e-01  6.3073849496568557e-01 3.9009098284340821e-01 8.2056334361539363e-01  6.2921152890870047e-01 3.8176774777537392e-01 8.2530578011360101e-01  6.2550596565711547e-01 3.6273974328008557e-01 8.3496570977727280e-01  6.2343474788579600e-01 3.5263874872272222e-01 8.3950609957881839e-01  6.2115937967169721e-01 3.4194728791125917e-01 8.4386257067352499e-01  6.1862261625468751e-01 3.3056642171127398e-01 8.4783293312793395e-01  6.1594831995976396e-01 3.1883561207896932e-01 8.5161286818673176e-01  6.1373683528251188e-01 3.0990066349426604e-01 8.5294423184272139e-01  6.0980371375117359e-01 2.8936893149289694e-01 8.5828067833977062e-01  5.7566236922325809e-01 1.8399088453436988e-01 8.3969830272930046e-01  5.0324083048949397e-01 9.7598010240793592e-02 5.3454872245877139e-01  4.7219289797003861e-01 1.8574447810520908e-01 2.9255304607327243e-01  5.2081778891931385e-01 4.9858506064957114e-01 3.4971005126758453e-01  5.8481499583708507e-01 5.3663272844597731e-01 5.8460761597505850e-01  5.7708785372295024e-01 3.6373899836735774e-01 7.4038917903573209e-01  5.2546866307113071e-01 3.3583866556327674e-01 5.2097843293472634e-01  4.7955985586674144e-01 3.0747437032064479e-01 2.5225979911739604e-01  4.6370349270767547e-01 1.4548124669239032e-01 2.5222848249092344e-01  4.7819759165968151e-01 8.6771927898486770e-02 3.7612772886279072e-01  4.9170944396161470e-01 7.8497505521391286e-02 4.6571516748950387e-01  4.8384140186691965e-01 8.1973460328194594e-02 4.1342357050122391e-01  4.7010156796294389e-01 9.2972945543393054e-02 3.1993039238209203e-01  4.6173983691275627e-01 1.1805672398965361e-01 2.5322955216675552e-01  4.6247204343932230e-01 1.4929850267371347e-01 2.4343800597910600e-01  4.8749751161469046e-01 1.5976015557084594e-01 4.1161182335422303e-01  5.5233511949345460e-01 2.5451507138349216e-01 7.3611732821266307e-01  5.8017163986669418e-01 5.4503947428383426e-01 5.5924729241401983e-01  5.1064962138264991e-01 5.0620888891958860e-01 2.8651441570681585e-01  4.6508189713643799e-01 1.8825972560731546e-01 2.3726484972326212e-01  4.6601959893401751e-01 9.1140912216209874e-02 2.9757197556593401e-01  4.6391943514601697e-01 1.0442934267094961e-01 2.7734258435476555e-01  4.6710666877426299e-01 2.4356746727410644e-01 2.1638035046265838e-01  5.0340148110114935e-01 5.3016551790394895e-01 2.2606818121200253e-01  5.5511745528573209e-01 7.1852887971681956e-01 2.7980084122511883e-01  5.9930409104555482e-01 7.4915054943333759e-01 3.6085797167057876e-01  6.3041299159953768e-01 6.9375274030100031e-01 4.8401395226364335e-01  6.4179337660790681e-01 5.7482373230138661e-01 6.4755917539541930e-01  6.2841770592852841e-01 4.0993004054798982e-01 8.0782738162301804e-01  5.9094636077704343e-01 2.3755893989933968e-01 8.5921098992339229e-01  5.4228570790085007e-01 1.2370075177752982e-01 7.3538510923394562e-01  5.0362307100174675e-01 8.4457920961301877e-02 5.4247322151647182e-01  4.8100022371338291e-01 8.1233888463215581e-02 4.0122171026396430e-01  4.6881491654805324e-01 9.3172823935987747e-02 3.1586616023130359e-01  4.6396620705420988e-01 1.0140274495764978e-01 2.8013188008906637e-01  4.6302774556244630e-01 1.0377705622545051e-01 2.7283661627524558e-01  4.6559888792480147e-01 9.6310442988661843e-02 2.9357248440432271e-01  4.7399492706049495e-01 8.5898439080111147e-02 3.5363393291775153e-01  4.9236932671861844e-01 8.1743420956541774e-02 4.7390167515579251e-01  5.2606016691045254e-01 1.0360701582825416e-01 6.6240450689015506e-01  5.7460307329488836e-01 1.9168137072713795e-01 8.3519454893624390e-01  6.1883390063261245e-01 3.6352043466546918e-01 8.3223794590196198e-01  6.3683636045102276e-01 5.4984087466384912e-01 6.7277253816238913e-01  6.2047530637452453e-01 6.8824198150630422e-01 4.7785850449178874e-01  5.7008136116426877e-01 7.2673269131878793e-01 3.1893279578516154e-01  5.0869332825865288e-01 5.6901279210407452e-01 2.2248333587868976e-01  4.6833852343997429e-01 2.8738291996230825e-01 1.9577574728266875e-01  4.5602619123571614e-01 1.5441130735304134e-01 1.9818971419425319e-01  4.5990277179305855e-01 1.9742709943120712e-01 1.9738095070152695e-01  5.1644775604092708e-01 6.0494094018656996e-01 2.2191014120282723e-01  5.5643151294474558e-01 7.3570371179402461e-01 2.6815381861544690e-01  5.7230274773501422e-01 6.9086074779243034e-01 3.6748153520655225e-01  5.2667115577022861e-01 4.8431464098809474e-01 4.0051105393637987e-01  4.7969750913130249e-01 1.9749923202440806e-01 3.3581773596702957e-01  5.0781702378537596e-01 1.3102968535381110e-01 5.6476882599762412e-01  5.8776408088268395e-01 3.3164112464974027e-01 8.0605069698746334e-01  5.9913286457318149e-01 6.4952381858599040e-01 4.8824296544056267e-01  5.3801996511690509e-01 6.8370110395526795e-01 2.5157979409765890e-01  4.8713295536456824e-01 4.8316979725565334e-01 1.7344798589184565e-01  4.7009010202245810e-01 3.3939090539028727e-01 1.6746120554313626e-01  4.6175000133652483e-01 2.2924640140693336e-01 1.8845449676962064e-01  4.6851016907778559e-01 1.3472841530810301e-01 2.9054117810252728e-01  5.0426562328237723e-01 9.4630357158935391e-02 5.3822576149699231e-01  5.3047794509481994e-01 1.0163401589662278e-01 6.8354908026630767e-01  4.9534017907722044e-01 8.7583071736387255e-02 4.8614699422329072e-01  4.6769607565642618e-01 1.0169517104888681e-01 3.0254373319295386e-01  4.5950247544616885e-01 1.6570975100872079e-01 2.1327099334301389e-01  4.7101887012957366e-01 3.2618978654364000e-01 1.8556440456580275e-01  5.1028647809005945e-01 5.8762276441865202e-01 2.1581223154168758e-01  5.6697520989302275e-01 7.2932138954703285e-01 3.0544809030933590e-01  6.1434889181564667e-01 7.1076591584064752e-01 4.3882543674634278e-01  6.3790781364492988e-01 6.1741756760808431e-01 5.9234391743992132e-01  6.3776600789713156e-01 4.9063661941959530e-01 7.3706042203331834e-01  6.1992735746979821e-01 3.5523057885998727e-01 8.3627605922987014e-01  5.9302838584565876e-01 2.4035910799208760e-01 8.5921676301001837e-01  5.6653912925129035e-01 1.6587066079471355e-01 8.1559996633379084e-01  5.4780888321324184e-01 1.2905094525083657e-01 7.5564175768985820e-01  5.3884142221278841e-01 1.1546910812103392e-01 7.1939961997789137e-01  5.3962868659211671e-01 1.1667939692034819e-01 7.2247529065920879e-01  5.4980388272441483e-01 1.3322573067475263e-01 7.6191357261907133e-01  5.6958674642286067e-01 1.7314150245221285e-01 8.2227703867338509e-01  5.9529753163106736e-01 2.4589479510579001e-01 8.6309712106053604e-01  6.2322793843754221e-01 3.5992754217636280e-01 8.4424516339638789e-01  6.4079906885872095e-01 4.9097874617637971e-01 7.3947349985057376e-01  6.4445320948893325e-01 6.0443970966932425e-01 6.1541849351194378e-01  6.3269017565738306e-01 6.9163068537958783e-01 4.8968130108719782e-01  6.0681351211982204e-01 7.4305759331137544e-01 3.8288205829885552e-01  5.6897385636819720e-01 7.4110544109348542e-01 2.9748061250621594e-01  5.2082383635616469e-01 6.2122788269975360e-01 2.3530573687116024e-01  4.7679151283692212e-01 3.5857257211886079e-01 2.0252387274793118e-01  4.5818181819496206e-01 1.5849484699446284e-01 2.0997982095123280e-01  4.5804249725764917e-01 1.1697477178919512e-01 2.3116667707336677e-01  4.5850551410794943e-01 1.4611599709093109e-01 2.1582252592197243e-01  4.5783983559774988e-01 1.8743207166169237e-01 1.8724225287228841e-01  4.6079595411285074e-01 2.4451807150600033e-01 1.7222302795621180e-01  4.8540188814384116e-01 4.4130460843743452e-01 1.9400489871512244e-01  5.5930041391228957e-01 6.5029538309181190e-01 3.6509210792846886e-01  5.9314609160036880e-01 4.4384803301481324e-01 7.1392265355516760e-01  5.3137250964060645e-01 1.8802295604489441e-01 6.7315121608382777e-01  4.8884095215900009e-01 2.4427195939098159e-01 3.6141936939504038e-01  4.7346279504825373e-01 3.1962160738815731e-01 2.0207880512623067e-01  4.6222995285750534e-01 2.3826973527057985e-01 1.8488705298028038e-01  4.5904685832313363e-01 1.5099293837753180e-01 2.1694399186252861e-01  4.6043346387071954e-01 1.1128057726486966e-01 2.4906374445531743e-01  4.5960355047015378e-01 1.3524757895253375e-01 2.3104210123099073e-01  5.0441403338252855e-01 3.2738545798391694e-01 3.9930755162549642e-01  5.5449933475639890e-01 3.0095494653979260e-01 7.0562745898950752e-01  5.8846295673212312e-01 4.9375188438608830e-01 6.4425593905995249e-01  5.3967144391262001e-01 5.6286541645048072e-01 3.8063259412970646e-01  4.7575623732000022e-01 2.6582112118318563e-01 2.6454130398439957e-01  4.8147416455379949e-01 9.6303689330811196e-02 3.9677348170595161e-01  5.3604975751569117e-01 1.1447793505232581e-01 7.0494537118736100e-01  5.7763381928563173e-01 1.8657890218853090e-01 8.3591130270883118e-01  5.8606505826444544e-01 2.1486816027938072e-01 8.4378944104988207e-01  5.8866478490046148e-01 2.2211996403554127e-01 8.4876964764435925e-01  5.9200357421299710e-01 2.3229064472490227e-01 8.5201517079367295e-01  5.9529478849007034e-01 2.4262913211560488e-01 8.5481060726686109e-01  5.9844160934341262e-01 2.5292453320900266e-01 8.5665927636166272e-01  6.0138451572914409e-01 2.6296601862662944e-01 8.5767230492145974e-01  6.0412570096923612e-01 2.7266854534989021e-01 8.5796750029675506e-01  6.0673535418695523e-01 2.8223834731690839e-01 8.5764478572047331e-01  6.0918324959797532e-01 2.9152398933387280e-01 8.5678941974779566e-01  6.1145559990935949e-01 3.0043244565691596e-01 8.5547491956524035e-01  6.1360639360201863e-01 3.0912869485561817e-01 8.5377733423724234e-01  6.1563457872003513e-01 3.1757919917452448e-01 8.5173169776493929e-01  6.1754625612587732e-01 3.2578031298490717e-01 8.4940237189917833e-01  6.1934539818068834e-01 3.3372208845551038e-01 8.4683108816978403e-01  6.2104658234268695e-01 3.4144136375557532e-01 8.4404563825057854e-01  6.2265565082489649e-01 3.4894387369871810e-01 8.4107815021705423e-01  6.2416267742048348e-01 3.5615839243954445e-01 8.3799155440846773e-01  6.2558914243293995e-01 3.6316849460274336e-01 8.3477575528654580e-01  6.2694440728656486e-01 3.6999712642778032e-01 8.3145153622551704e-01  6.2820858194227203e-01 3.7653197512505593e-01 8.2808927892814232e-01  6.2941319594989165e-01 3.8291439004757888e-01 8.2464428086732233e-01  6.3055193655828556e-01 3.8909634382164338e-01 8.2115496849430680e-01  6.3162484389855844e-01 3.9506302070278415e-01 8.1765141778156236e-01  6.3263855843009131e-01 4.0083770394712109e-01 8.1413356125934255e-01  6.3359598670261619e-01 4.0642206413730758e-01 8.1061577176362165e-01  6.3450292169484834e-01 4.1183792164952276e-01 8.0709707284019527e-01  6.3536576096695019e-01 4.1711189412538391e-01 8.0357072616138403e-01  6.3616989883483643e-01 4.2214152073690797e-01 8.0011791584057113e-01  6.3692620909402176e-01 4.2698220614610038e-01 7.9671231917047203e-01  6.3765505066575900e-01 4.3175315380821222e-01 7.9327793319166573e-01  6.3833508765589542e-01 4.3630674147850285e-01 7.8992922268807697e-01  6.3897058320795908e-01 4.4065981200586679e-01 7.8666367676879234e-01  6.3957426584684229e-01 4.4488632325451349e-01 7.8343356946440934e-01  6.4014192416201476e-01 4.4894819995310170e-01 7.8027426778800957e-01  6.4067999535477815e-01 4.5288374112352431e-01 7.7716322860606446e-01  6.4117957594727093e-01 4.5661616781970316e-01 7.7416610065508351e-01  6.4165384542118964e-01 4.6023621136328646e-01 7.7121796349758687e-01  6.4209690326986002e-01 4.6369004656546364e-01 7.6836656160537098e-01  6.4251536210797655e-01 4.6701959521070158e-01 7.6558161826791216e-01  6.4291174820064056e-01 4.7023723779447940e-01 7.6285801477532245e-01  6.4327631229156146e-01 4.7325890864422882e-01 7.6027242412802287e-01  6.4361589887756654e-01 4.7613017258959134e-01 7.5778827447791275e-01  6.4393983261845167e-01 4.7892026473485594e-01 7.5535079467599286e-01  6.4423849248675868e-01 4.8154261586130942e-01 7.5303805763987486e-01  6.4451441583850189e-01 4.8401087920574520e-01 7.5084272511887740e-01  6.4477312389068231e-01 4.8636619144693327e-01 7.4872988753726732e-01  6.4501488044042565e-01 4.8860391727583519e-01 7.4670806967408254e-01  6.4523607812638828e-01 4.9068695548671359e-01 7.4481172681728791e-01  6.4033372857639981e-01 4.5034794178360538e-01 7.7917341074481672e-01  4.5867788080467015e-01 1.5867951891874385e-01 2.1336864340671044e-01  6.4569165259356165e-01 4.9506650041068750e-01 7.4078175856989492e-01  4.6183547728349389e-01 1.8782623591485317e-01 2.1550228221417816e-01  6.4527338509363108e-01 4.9104911454766509e-01 7.4448114893196515e-01  4.6402169594722975e-01 1.5668450467910014e-01 2.4801723509797483e-01  6.4138220327226958e-01 4.5812002385715916e-01 7.7294040356750349e-01  6.2623638121176439e-01 3.6638390366730333e-01 8.3325008803998335e-01  4.9648436100195242e-01 5.1926409522270034e-01 1.9797978753225023e-01  4.6521113623616084e-01 1.9099734697323556e-01 2.3508986674964155e-01  6.3392709244171197e-01 4.0839048006225570e-01 8.0934817143747251e-01  5.2402208086993396e-01 1.1169650336898276e-01 6.4522148030945226e-01  6.3843021626582230e-01 5.7219565633845926e-01 6.5362984051369666e-01  6.2748864039514785e-01 3.7279576575526208e-01 8.3003312724657641e-01  4.7165577436550277e-01 1.5852152476444081e-01 3.0126526736840448e-01  6.4649491783533020e-01 5.0326070057562877e-01 7.3309276128123946e-01  6.0801003158692724e-01 3.2144873228214171e-01 8.4936466200672622e-01  4.6129624052510432e-01 1.4481394906557049e-01 2.3658934276245028e-01  6.4684418048109238e-01 5.0702316996609276e-01 7.2949737744299259e-01  6.1654562014863390e-01 3.2146498939600776e-01 8.5066723266875000e-01  4.6943552002944822e-01 1.0474532459764908e-01 3.1058464370987715e-01  5.9966318051649792e-01 2.5704557872666028e-01 8.5718894957715419e-01  6.4681938755829604e-01 5.0675772743152736e-01 7.2975194173605940e-01  4.6804737372661398e-01 3.0257693377168982e-01 1.8177316400616553e-01  5.0156606663636250e-01 4.1723470867713364e-01 3.1610516063329303e-01  5.7617025267544797e-01 1.8627985381039366e-01 8.3030660714159532e-01  6.4653195834231514e-01 5.0367035421565631e-01 7.3270426702727476e-01  6.4302120441813726e-01 4.7114480295036176e-01 7.6208557320614134e-01  5.8841779136852734e-01 5.7752506388575575e-01 5.4341876582339210e-01  6.1881917052492441e-01 3.8725637274375768e-01 8.1621571437857110e-01  6.3706513767193329e-01 4.2785299610217026e-01 7.9608456308936693e-01  6.4434285941643232e-01 4.8244207380169352e-01 7.5223623745853263e-01  5.5605796791259843e-01 2.1279246822031683e-01 7.7647165459420475e-01  6.0933784917384270e-01 2.8947959180562949e-01 8.5831069247313208e-01  5.1269168951575750e-01 4.7860560180744260e-01 3.2519534555491231e-01  6.4611579980048872e-01 4.9934462602023461e-01 7.3679338458136123e-01  5.0365430522842469e-01 9.6898163550245595e-02 5.3396593299446049e-01  6.2704563926152512e-01 6.7693490209220031e-01 5.0362635047930304e-01  6.4431145878313367e-01 4.8219895671007573e-01 7.5245638606745857e-01  6.3788088196634218e-01 4.3325628197472787e-01 7.9218363220299992e-01  4.6485897252130598e-01 2.6784462673888504e-01 1.8246425750118231e-01  4.9630661587480573e-01 4.8847934887526756e-01 2.1997010827544489e-01  6.3276291815321006e-01 4.0154256059279353e-01 8.1368279141655409e-01  6.4668501883926899e-01 5.0529621654815249e-01 7.3115245829323472e-01  6.3948003744357795e-01 4.4418853494026417e-01 7.8396452800100058e-01  5.5138086528200325e-01 5.8557862038200059e-01 4.1438403575828309e-01  4.9055487492137895e-01 9.3209205880531359e-02 4.5544161938869504e-01  6.1952263369063998e-01 3.3455725593033558e-01 8.4651333122496553e-01  4.7741699994916581e-01 3.1339746695189585e-01 2.3835890736490656e-01  6.4180251452799220e-01 4.6139597841473484e-01 7.7026369465392286e-01  6.4506467840938586e-01 4.8904363209613627e-01 7.4630700848215403e-01  6.2331640937420063e-01 3.5208872628503629e-01 8.3976269375552270e-01  6.0381826361683921e-01 6.9574379161812361e-01 4.3868181426711117e-01  6.1027778856133252e-01 2.9578029125843885e-01 8.5622789749743633e-01  4.5866231501612387e-01 2.0741523650866792e-01 1.8085342075549637e-01  6.4324721434591869e-01 4.7298173578718244e-01 7.6050659950207411e-01  6.3096421574