<?xml version="1.0"?>
<VTKFile type="UnstructuredGrid"  version="0.1"  >
<UnstructuredGrid>
<Piece  NumberOfPoints="4940" NumberOfCells="9650">
<Points>
<DataArray  type="Float64"  NumberOfComponents="3"  format="ascii">500 250 0  0 250 0  250 500 0  250 0 0  256.8885856082646 499.9050767557906 0  263.7719401218049 499.6203791065173 0  270.6448364229772 499.1461232471188 0  277.5020553257866 498.4826693209355 0  284.3383895508592 497.6305211460281 0  291.1486476865662 496.5903258312597 0  297.9276581259182 495.3628732847843 0  304.6702729675493 493.9490956196674 0  311.3713719748657 492.3500664368026 0  318.0258664141369 490.5670000199653 0  324.6287029687753 488.6012504015818 0  331.1748675330201 486.4543103455647 0  337.6593890460416 484.1278102064655 0  344.0773432429536 481.6235166997244 0  350.4238564271474 478.9433315480048 0  356.694109139292 476.0892900492477 0  362.88333985546 473.0635595140469 0  368.9868485575419 469.8684376402048 0  375.0000003153078 466.5063507640667 0  380.9182288257928 462.9798520074548 0  386.7370398729688 459.2916193419558 0  392.4520147244077 455.444453565817 0  398.0588135356345 451.4412761437442 0  403.5531785622926 447.285127045646 0  408.9309374414144 442.9791624087773 0  414.1880064015299 438.5266521049243 0  419.3203932989752 433.9309773069245 0  424.324200661095 429.1956279150535 0  429.1956286596235 424.3241998957182 0  433.9309780058756 419.3203925397119 0  438.5266527445345 414.1880056671062 0  442.9791630130591 408.9309367076756 0  447.2851276060475 403.5531778422888 0  451.4412766621026 398.0588128303826 0  455.4444540361634 392.4520140460735 0  459.2916197786263 386.7370392045948 0  462.9798524073514 380.9182281752347 0  466.5063511234856 374.9999996927758 0  469.8684379657123 368.9868479560565 0  473.0635598144817 362.8833392617846 0  476.0892903190255 356.6941085676214 0  478.9433317963513 350.4238558609745 0  481.6235169154735 344.0773427117675 0  484.12781039012 337.6593885555221 0  486.4543105028062 331.1748670749914 0  488.601250531677 324.6287025528375 0  490.5670001317469 318.0258660188321 0  492.3500665291326 311.3713716102628 0  493.949095695951 304.6702726271575 0  495.3628733416623 297.9276578347343 0  496.5903258712341 291.1486474470129 0  497.6305211749058 284.3383893426084 0  498.4826693388848 277.502055163614 0  499.1461232580606 270.6448362909296 0  499.6203791109319 263.7719400417897 0  499.9050767571306 256.8885855596534 0  499.9050767559877 243.1114143988867 0  499.6203791069493 236.2280598860241 0  499.1461232485393 229.3551635941651 0  498.4826693235677 222.4979446979962 0  497.6305211491849 215.6616104719064 0  496.5903258357701 208.8513523404629 0  495.3628732906988 202.0723419043604 0  493.9490956264813 195.3297270628552 0  492.3500664487791 188.6286280724281 0  490.5670000344809 181.9741336371959 0  488.6012504175981 175.3712970824318 0  486.4543103623226 168.8251325157939 0  484.1278102222298 162.3406109960628 0  481.6235167152198 155.9226567951971 0  478.9433315621651 149.5761436051346 0  476.0892900516498 143.3058908657982 0  473.063559513628 137.1166601437124 0  469.8684376406648 131.0131514433083 0  466.5063507675389 124.9999996907064 0  462.9798520124137 119.0817711822745 0  459.2916193464549 113.2629601339176 0  455.4444535642773 107.5479852733717 0  451.4412761528674 101.9411864767781 0  447.2851270583545 96.44682145403524 0  442.9791624165781 91.06906256805769 0  438.5266521117469 85.81199360630404 0  433.9309773156125 80.67960671046254 0  429.1956279150353 75.67579933888632 0  424.3241998888952 70.80437133373906 0  419.3203925223282 66.06902197812161 0  414.1880056411937 61.47334723289828 0  408.9309366751728 57.0208369601728 0  403.5531778009394 52.71487236176898 0  398.058812796452 48.55872331295853 0  392.4520140187753 44.55554594490843 0  386.7370391799677 40.70838020528396 0  380.9182281475119 37.02014757560744 0  374.9999996718656 33.49364886444181 0  368.9868479340393 30.13156202237255 0  362.8833392380029 26.93644017348339 0  356.6941085456942 23.91070967062674 0  350.4238558420009 21.0566681953261 0  344.0773426899492 18.37648307566465 0  337.6593885328982 15.87218960140942 0  331.1748670549786 13.54568949032341 0  324.6287025315056 11.39874946165088 0  318.0258660010876 9.432999863235466 0  311.3713716017894 7.649933468721599 0  304.6702726190621 6.050904302234756 0  297.9276578269805 4.637126656823085 0  291.148647441857 3.409674127905504 0  284.3383893425031 2.369478825079682 0  277.502055159398 1.517330660648639 0  270.6448362875833 0.853876741662134 0  263.7719400401456 0.3796208889774277 0  256.8885855592052 0.09492324285704967 0  243.1114143979462 0.09492324403817065 0  236.2280598850882 0.3796208931023841 0  229.3551635938215 0.8538767514891958 0  222.4979446968584 1.517330676558146 0  215.6616104703111 2.369478851036291 0  208.8513523382973 3.409674164591252 0  202.0723419066374 4.637126708856528 0  195.3297270659513 6.050904372824903 0  188.628628074828 7.649933550613184 0  181.9741336377093 9.432999965373938 0  175.3712970793675 11.39874958336037 0  168.8251325057572 13.54568964112298 0  162.340610986655 15.87218978129263 0  155.9226567874317 18.37648328793418 0  149.576143602509 21.05666843898663 0  143.3058908718157 23.91070994551046 0  137.1166601505524 26.93644048291054 0  131.0131514451933 30.13156235831508 0  124.9999996848412 33.49364923584736 0  119.0817711715717 37.0201479941652 0  113.2629601211624 40.70838066187849 0  107.5479852622251 44.55554644345162 0  101.9411864693332 48.55872385260452 0  96.44682143286516 52.71487295812284 0  91.06906254351222 57.02083760363669 0  85.81199358272519 61.4733479087879 0  80.67960667988106 66.06902271253972 0  75.67579930062769 70.80437212218331 0  70.80437129287643 75.67580015310926 0  66.06902193673014 80.67960752263491 0  61.47334718684866 85.81199441168215 0  57.02083692524275 91.0690633672404 0  52.71487232786438 96.44682224262129 0  48.55872328070024 101.941187247437 0  44.55554591578033 107.5479860232332 0  40.7083801742321 113.2629608675606 0  37.02014754791168 119.0817718975441 0  33.49364883372994 125.000000381329 0  30.13156199866361 131.0131521097709 0  26.9364401549829 137.1166607985551 0  23.91070965524918 143.3058914868915 0  21.05666818346614 149.576144185037 0  18.37648306853811 155.9226573275967 0  15.8721895918909 162.3406114925245 0  13.54568948170046 168.8251329701392 0  11.39874945301878 175.3712974960928 0  9.432999857087736 181.9741340206533 0  7.649933466342702 188.6286284076045 0  6.050904301250966 195.3297273853278 0  4.637126656808988 202.0723421730917 0  3.409674127767772 208.8513525589684 0  2.369478824521138 215.6616106615248 0  1.517330660909465 222.4979448382452 0  0.8538767414496533 229.355163714981 0  0.3796208887135322 236.2280599646376 0  0.09492324266324204 243.1114144478261 0  0.0949232442452228 256.8885856095658 0  0.3796208935834784 263.7719401236316 0  0.8538767530323526 270.6448364248016 0  1.517330679476544 277.5020553295092 0  2.369478854618649 284.3383895555228 0  3.409674170191892 291.1486476952655 0  4.6371267162381 297.9276581311522 0  6.050904381420935 304.6702729724059 0  7.649933562385399 311.3713719716595 0  9.43299997979841 318.0258664133013 0  11.3987495994252 324.6287029719946 0  13.54568965885832 331.174867545904 0  15.87218979367188 337.6593890464085 0  18.37648329843151 344.0773432384132 0  21.05666844777872 350.423856417535 0  23.91070995156048 356.6941091410045 0  26.93644048988043 362.8833398632205 0  30.13156235982007 368.9868485575877 0  33.49364924138357 375.0000003247478 0  37.0201480006036 380.9182288389023 0  40.70838066758398 386.7370398875706 0  44.55554644477201 392.4520147396792 0  48.55872386086904 398.0588135419111 0  52.71487295981296 403.5531785693063 0  57.02083760525949 408.9309374584583 0  61.47334790862246 414.1880064170849 0  66.06902271205095 419.320393319588 0  70.80437211216579 424.3242006890749 0  75.67580013809859 429.195628692521 0  80.6796075127923 433.930978054209 0  85.81199439754931 438.5266528008431 0  91.06906334717917 442.9791630582355 0  96.44682221438322 447.2851276501571 0  101.9411872243843 451.441276702356 0  107.5479859945825 455.4444540643537 0  113.2629608446994 459.2916198108319 0  119.0817718768376 462.9798524393601 0  125.0000003647644 466.5063511567065 0  131.0131521012763 469.8684379967393 0  137.1166607840049 473.0635598376539 0  143.3058914748804 476.0892903390826 0  149.5761441732679 478.9433318113714 0  155.9226573130112 481.6235169255377 0  162.3406114779862 484.1278104026658 0  168.8251329570439 486.4543105138039 0  175.3712974805475 488.601250542119 0  181.9741340135204 490.5670001408953 0  188.6286284005059 492.3500665318597 0  195.3297273788229 493.9490956972913 0  202.0723421640089 495.3628733414168 0  208.8513525529672 496.5903258712308 0  215.6616106544547 497.6305211744985 0  222.4979448327038 498.4826693384772 0  229.3551637102845 499.1461232581612 0  236.2280599621369 499.6203791111485 0  243.1114144470173 499.9050767573145 0  155.2373389820306 474.8197567317462 0  25.36256300907667 153.9152755065208 0  432.3709625126712 412.6214396304305 0  6.013151705810699 246.637913163471 0  246.6379131630491 493.986848294322 0  338.6995838441862 22.68244767887072 0  477.3175523131281 338.6995838660569 0  493.9868482700757 246.6379131399102 0  246.6201155078769 6.218451882810491 0  417.6179310263282 72.7156044707053 0  102.2232990934413 445.0100869616822 0  63.66330858966404 92.20354579482142 0  391.3105220491464 50.73522820883105 0  72.79295043967942 418.0702734974704 0  448.290574428537 108.25674339002 0  402.4604651193511 440.7462829841712 0  97.55317348421397 59.11376320116034 0  136.7376477664901 33.58246472647134 0  363.3288394375288 465.6947312928271 0  44.0678766556007 381.0860953771871 0  469.6905266180034 142.3890690100806 0  22.68244791668644 338.6995843487432 0  338.699584349159 477.317552078365 0  173.389488083762 18.6681884918202 0  483.4809734778481 179.7121987795732 0  13.50237455842738 306.4709525540879 0  305.9825168523021 487.24416992
[...]
<PointData  Vectors="f_12"> 
<DataArray  type="Float64"  Name="f_12"  NumberOfComponents="3" format="ascii">5.5165565459070409e-01 5.3010038063058207e-01 4.8041483277460573e-01  5.7257721449224042e-01 4.9102236992096293e-01 5.6851176414676130e-01  5.3873502284449948e-01 5.2097351883973797e-01 4.4461500965617573e-01  5.4852625998451765e-01 5.2288840952473004e-01 4.7626522138918703e-01  5.3853422811212348e-01 5.2068838381714411e-01 4.4411636718113418e-01  5.3834989195220861e-01 5.2042279293587324e-01 4.4365995084428206e-01  5.3817460358291114e-01 5.2016692788030028e-01 4.4322713439943712e-01  5.3801390031742458e-01 5.1992956855000372e-01 4.4283130342487981e-01  5.3786540500690649e-01 5.1970775676928127e-01 4.4246645856464706e-01  5.3772938371948709e-01 5.1950255519700694e-01 4.4213295790583068e-01  5.3760574195019217e-01 5.1931433805765881e-01 4.4183042257490990e-01  5.3749394492199110e-01 5.1914273903589592e-01 4.4155738060391103e-01  5.3739460758536550e-01 5.1898912457490776e-01 4.4131517381703822e-01  5.3730824590113380e-01 5.1885469035571996e-01 4.4110495254814114e-01  5.3723925365794889e-01 5.1874665518408192e-01 4.4093724818410240e-01  5.3717306853900193e-01 5.1864258008461006e-01 4.4077653220027868e-01  5.3713266799746617e-01 5.1857865445853646e-01 4.4067861900612842e-01  5.3709707337940471e-01 5.1852218834646491e-01 4.4059243001157883e-01  5.3707621953537987e-01 5.1848888966352258e-01 4.4054207850342259e-01  5.3706756106791820e-01 5.1847485931462656e-01 4.4052133970698881e-01  5.3707042572787700e-01 5.1847907393272585e-01 4.4052854574947503e-01  5.3709113272161335e-01 5.1851143590859960e-01 4.4057912012157807e-01  5.3712574820704906e-01 5.1856568859834884e-01 4.4066350862133619e-01  5.3716855864688184e-01 5.1863272518089165e-01 4.4076783124366259e-01  5.3722563256005063e-01 5.1872191886947561e-01 4.4090693087639399e-01  5.3729972450510743e-01 5.1883723366170731e-01 4.4108762791225709e-01  5.3739155820010387e-01 5.1897947351010598e-01 4.4131178511283542e-01  5.3749167633053430e-01 5.1913360251877949e-01 4.4155647718945418e-01  5.3760590338367298e-01 5.1930818827895175e-01 4.4183607221807575e-01  5.3774054957501871e-01 5.1951229362441331e-01 4.4216620385078664e-01  5.3788580734697777e-01 5.1973039121859377e-01 4.4252309520745348e-01  5.3804794425776203e-01 5.1997118265615028e-01 4.4292236259083062e-01  5.3822594530558776e-01 5.2023246737463513e-01 4.4336178875449855e-01  5.3841689767504541e-01 5.2050910925593452e-01 4.4383444604557021e-01  5.3862976656866723e-01 5.2081296569560187e-01 4.4436293505120505e-01  5.3885762217196598e-01 5.2113302815285090e-01 4.4493052414803441e-01  5.3909769785236095e-01 5.2146443462132674e-01 4.4553058694612468e-01  5.3935988470101881e-01 5.2181938627444380e-01 4.4618843969937599e-01  5.3964486409624790e-01 5.2219695156981372e-01 4.4690652025470662e-01  5.3994403245490386e-01 5.2258423195378134e-01 4.4766365287328624e-01  5.4025742322475723e-01 5.2297982037269253e-01 4.4846049163289131e-01  5.4059450709669576e-01 5.2339369629946664e-01 4.4932189220160779e-01  5.4095519022816063e-01 5.2382348884082497e-01 4.5024841938925386e-01  5.4133361879052688e-01 5.2425942691521743e-01 4.5122629407495807e-01  5.4173530040893392e-01 5.2470548076532364e-01 4.5227059113408541e-01  5.4215873603660025e-01 5.2515732614479460e-01 4.5337845299700541e-01  5.4260376008301403e-01 5.2561161426293568e-01 4.5455077346966594e-01  5.4307013398860915e-01 5.2606495876267101e-01 4.5578845334719759e-01  5.4356768464489569e-01 5.2652250084515229e-01 4.5711907545531005e-01  5.4408639272932091e-01 5.2697175738341073e-01 4.5851747251288261e-01  5.4463080757812987e-01 5.2741114345934781e-01 4.5999840867458502e-01  5.4520091710594787e-01 5.2783754253956228e-01 4.6156299192074052e-01  5.4579729602850158e-01 5.2824499067964614e-01 4.6321604566476060e-01  5.4642532326198923e-01 5.2863187503385800e-01 4.6497473119384836e-01  5.4708037920088048e-01 5.2898879554098244e-01 4.6682923608883542e-01  5.4776214582409166e-01 5.2930880479917675e-01 4.6878222697162836e-01  5.4847650377288759e-01 5.2958805796737773e-01 4.7085340692493005e-01  5.4922044312421148e-01 5.2981676255723187e-01 4.7303899023686702e-01  5.4999275301346195e-01 5.2998825089720958e-01 4.7533733784242388e-01  5.5078771347128241e-01 5.3009681653896501e-01 4.7773718869946724e-01  5.5251617607956116e-01 5.3004489190434656e-01 4.8309346074422799e-01  5.5341697335526485e-01 5.2987581490142233e-01 4.8595676659519732e-01  5.5434796951825960e-01 5.2959002460254656e-01 4.8897431431698962e-01  5.5531825007637703e-01 5.2917480677071860e-01 4.9217923418091819e-01  5.5631788188283460e-01 5.2860907363361864e-01 4.9555826119275714e-01  5.5734739256402410e-01 5.2788569308559707e-01 4.9911429247130629e-01  5.5840765148440030e-01 5.2697175380567640e-01 5.0287446876406527e-01  5.5949672027665820e-01 5.2585523951696878e-01 5.0683970315475380e-01  5.6061037299500338e-01 5.2451394214086799e-01 5.1101391274088837e-01  5.6174573303781150e-01 5.2292389260139349e-01 5.1540627853584553e-01  5.6290756401710196e-01 5.2104938974917769e-01 5.2005524779666434e-01  5.6407910613219747e-01 5.1888014222222423e-01 5.2492317708486447e-01  5.6526516123337767e-01 5.1637729328771220e-01 5.3005177310203311e-01  5.6645873494296717e-01 5.1350496656052458e-01 5.3544959961138883e-01  5.6765127587786413e-01 5.1023767499213390e-01 5.4111314499436136e-01  5.6883239270420971e-01 5.0654328263059367e-01 5.4704085071383246e-01  5.6999320760487537e-01 5.0239438542155102e-01 5.5323044138164634e-01  5.7112203234093561e-01 4.9775266150715164e-01 5.5968242665087831e-01  5.7220737694297230e-01 4.9258479764160895e-01 5.6639323601051339e-01  5.7323339802338480e-01 4.8687690861322608e-01 5.7333307039660153e-01  5.7418039025872247e-01 4.8064443970129261e-01 5.8044013121959170e-01  5.7503670524551120e-01 4.7378360256153484e-01 5.8776326623066300e-01  5.7578150128062200e-01 4.6634752555726250e-01 5.9520695718729333e-01  5.7639738040093369e-01 4.5834668092545550e-01 6.0271530359399350e-01  5.7686613555011779e-01 4.4978562985504883e-01 6.1023259034770949e-01  5.7717134211365184e-01 4.4070607809426299e-01 6.1767780998747535e-01  5.7729967613043109e-01 4.3115258650979299e-01 6.2497254842359506e-01  5.7724049475924233e-01 4.2118562960717748e-01 6.3203338668389075e-01  5.7698964544579001e-01 4.1087065144282259e-01 6.3878189196902624e-01  5.7654108446542607e-01 4.0027701590077658e-01 6.4513882461577243e-01  5.7589894574106737e-01 3.8949921394344861e-01 6.5102548210812827e-01  5.7507038711851377e-01 3.7862828783698105e-01 6.5637609223844284e-01  5.7406821988138534e-01 3.6778856364682205e-01 6.6112497625511846e-01  5.7289769014706005e-01 3.5697269261209524e-01 6.6526706464259067e-01  5.7157883680185007e-01 3.4630009868239342e-01 6.6876270159203943e-01  5.7015641600316891e-01 3.3602631401887673e-01 6.7155875988905811e-01  5.6865048303875476e-01 3.2616823093785080e-01 6.7369143889240468e-01  5.6709016229669751e-01 3.1680208146906141e-01 6.7519808523833680e-01  5.6557612427809889e-01 3.0836388353121658e-01 6.7610613270949294e-01  5.6415271670815037e-01 3.0093641857909353e-01 6.7652479615414485e-01  5.6284762097315411e-01 2.9451013299222656e-01 6.7657750856496179e-01  5.6186965175062020e-01 2.8991360650106335e-01 6.7642647225833696e-01  5.6127459661385448e-01 2.8723508106268986e-01 6.7624100177972568e-01  5.6121405036942895e-01 2.8708210523167904e-01 6.7615452885495630e-01  5.6177533310081396e-01 2.8988501774317077e-01 6.7618114977101651e-01  5.6304620331327049e-01 2.9630159297861902e-01 6.7613173928020220e-01  5.6499560833762974e-01 3.0678791404370581e-01 6.7549169231950790e-01  5.6749649009462855e-01 3.2176550042035240e-01 6.7338874978618402e-01  5.7032435592410358e-01 3.4174471472643259e-01 6.6857111794529955e-01  5.7304315882736501e-01 3.6654259068599188e-01 6.5958051036549625e-01  5.7506045021793240e-01 3.9520411484155515e-01 6.4530795619497971e-01  5.7568342543389495e-01 4.2593715934001430e-01 6.2515749273855403e-01  5.7437727312969000e-01 4.5650982254811440e-01 5.9950113001334715e-01  5.7076462205818757e-01 4.8416571321863872e-01 5.6955083869570999e-01  5.6491261252898850e-01 5.0589547275367019e-01 5.3749512458342708e-01  5.5722837926338531e-01 5.1926807918549678e-01 5.0565613522066155e-01  5.3986631881358760e-01 5.1652479924560002e-01 4.5202792788326013e-01  5.3138240896424904e-01 5.0474970443385647e-01 4.2995619884047465e-01  5.2454191096740077e-01 4.8770375780784919e-01 4.1481193223795382e-01  5.1912377843672630e-01 4.7104164758479145e-01 4.0379367014589373e-01  5.1515752944251259e-01 4.5680334880597745e-01 3.9622776558193462e-01  5.1259660319116629e-01 4.4659959909634450e-01 3.9162753788159332e-01  5.1124190448104323e-01 4.4087556166012148e-01 3.8927962333447835e-01  5.1103799676779682e-01 4.3999557072845247e-01 3.8893154357634446e-01  5.1192511877989832e-01 4.4380129140647995e-01 3.9044804395279142e-01  5.1390241912548007e-01 4.5194062354711723e-01 3.9391816578549960e-01  5.1713699189324136e-01 4.6423083373742879e-01 3.9987666629826579e-01  5.2164934894683468e-01 4.7930947277398139e-01 4.0874615043728441e-01  5.2743389761866200e-01 4.9535710173726333e-01 4.2105031067407200e-01  5.3434361250565199e-01 5.0987257820980003e-01 4.3708187541925053e-01  5.4215892636370488e-01 5.2018248901684683e-01 4.5729317090153943e-01  5.5032822673770310e-01 5.2389332324035542e-01 4.8121468448541760e-01  5.5812881858019470e-01 5.1969413414826959e-01 5.0789748465133999e-01  5.6491753885520968e-01 5.0806605552531359e-01 5.3577363214008300e-01  5.7021370283799933e-01 4.9037818830200841e-01 5.6327972351456301e-01  5.7379691052875637e-01 4.6869940576825253e-01 5.8878812594575303e-01  5.7571187429354609e-01 4.4505264190144950e-01 6.1113226266383103e-01  5.7624906391838970e-01 4.2164161485713414e-01 6.2945235247332154e-01  5.7580173547001623e-01 4.0021664324965511e-01 6.4346412155422872e-01  5.7478205696063067e-01 3.8166897147114726e-01 6.5364671288022747e-01  5.7354206940781194e-01 3.6642140058898037e-01 6.6070428219251309e-01  5.7234932897563662e-01 3.5464984941458927e-01 6.6534458398575735e-01  5.7136608827558721e-01 3.4614982924925719e-01 6.6825823815137564e-01  5.7068070199261800e-01 3.4064556083975778e-01 6.6996121743913117e-01  5.7030500172530718e-01 3.3768725509776043e-01 6.7083901593298056e-01  5.7021913821074643e-01 3.3687585619856325e-01 6.7112422195243626e-01  5.7037718018023476e-01 3.3781207953567094e-01 6.7095380028515539e-01  5.7073561104028758e-01 3.4020859758599781e-01 6.7038526844638524e-01  5.7123398419330684e-01 3.4371703431471806e-01 6.6946296498817193e-01  5.7183259500286465e-01 3.4814436281565364e-01 6.6819073394950412e-01  5.7245942917006032e-01 3.5307045836562956e-01 6.6663306512008158e-01  5.7311126433781368e-01 3.5852685167859266e-01 6.6475689953625716e-01  5.7376169304876179e-01 3.6438889018298209e-01 6.6256212193306119e-01  5.7439488523738613e-01 3.7059750224851351e-01 6.6004308257879440e-01  5.7499759240171733e-01 3.7711093065435630e-01 6.5718741343004006e-01  5.7555495281486946e-01 3.8387247697258281e-01 6.5399400411184327e-01  5.7605083387127864e-01 3.9076847151183558e-01 6.5049967380604001e-01  5.7647872766774289e-01 3.9778532191686417e-01 6.4669707191374470e-01  5.7683334926870122e-01 4.0496386528203226e-01 6.4254719322016940e-01  5.7710342184876706e-01 4.1216271373370261e-01 6.3812172982616755e-01  5.7728266824893304e-01 4.1934437045551121e-01 6.3343666601377435e-01  5.7736878976931882e-01 4.2649213326927360e-01 6.2850164893157434e-01  5.7735831923516845e-01 4.3358628618960221e-01 6.2332660927343042e-01  5.7724886944036624e-01 4.4046401833895865e-01 6.1802789389945256e-01  5.7704282155989961e-01 4.4720404394346142e-01 6.1256072645583370e-01  5.7674716970108086e-01 4.5370070639873095e-01 6.0701930915120805e-01  5.7635725446425989e-01 4.5996887490991933e-01 6.0139163123553718e-01  5.7588847141961996e-01 4.6594778034471551e-01 5.9575782053977377e-01  5.7534517052990075e-01 4.7159929666192368e-01 5.9016406405552213e-01  5.7473409837101808e-01 4.7693867039642313e-01 5.8461569222320808e-01  5.7406284474023028e-01 4.8195916444339310e-01 5.7913902493159819e-01  5.7334208667396369e-01 4.8665052457872010e-01 5.7376844510092984e-01  5.7177684034849319e-01 4.9507824424519559e-01 5.6338770652522752e-01  5.7094961320181703e-01 4.9881893483434991e-01 5.5841752990481919e-01  5.7009773377572015e-01 5.0227097023140543e-01 5.5358735539986070e-01  5.6923065462797717e-01 5.0543952482503340e-01 5.4891605536869370e-01  5.6835240398777265e-01 5.0833891281335120e-01 5.4440370901032098e-01  5.6746715084670796e-01 5.1098602936409054e-01 5.4004771791167971e-01  5.6657912378658770e-01 5.1339384478901995e-01 5.3584922511802568e-01  5.6569182625649583e-01 5.1557844153358612e-01 5.3180484755841095e-01  5.6480790284272298e-01 5.1755390122577016e-01 5.2791103270305839e-01  5.6393001576259172e-01 5.1933399747440590e-01 5.2416424947492912e-01  5.6306052710825294e-01 5.2092995663868413e-01 5.2056281661166659e-01  5.6220203819917491e-01 5.2235748649578728e-01 5.1710154219280469e-01  5.6135270172474505e-01 5.2363020373539604e-01 5.1376558409626405e-01  5.6051445701521729e-01 5.2475924177266142e-01 5.1055213600533911e-01  5.5969339810585894e-01 5.2574881614554980e-01 5.0747542733595807e-01  5.5888057554698478e-01 5.2661830849946245e-01 5.0449589584797516e-01  5.5808251091591110e-01 5.2737163220904948e-01 5.0162968091400628e-01  5.5730552903919484e-01 5.2801352156794468e-01 4.9889144570388833e-01  5.5654186474975520e-01 5.2855652273301801e-01 4.9625102978390795e-01  5.5579353113231167e-01 5.2901073436453916e-01 4.9370619668490329e-01  5.5506065001961657e-01 5.2937966758618094e-01 4.9125595951943135e-01  5.5434461357514042e-01 5.2967056713104010e-01 4.8889944741960928e-01  5.5364360136018953e-01 5.2989062893351324e-01 4.8662648043875129e-01  5.5295795246935309e-01 5.3004449806060372e-01 4.8443537250796626e-01  5.5229075291956253e-01 5.3013768151234708e-01 4.8233202893914245e-01  5.5163950212529833e-01 5.3017517539403014e-01 4.8030585399115105e-01  5.5100139879612053e-01 5.3016242665889546e-01 4.7834509546335396e-01  5.5038381784972035e-01 5.3010326644661088e-01 4.7647006233585043e-01  5.4977904605799199e-01 5.3000121021077218e-01 4.7465526208017189e-01  5.4919003503376418e-01 5.2986109297211914e-01 4.7290671998078954e-01  5.4861725119904525e-01 5.2968635146398058e-01 4.7122429095780921e-01  5.4805989455873760e-01 5.2948010567116288e-01 4.6960374298413876e-01  5.4751796356853299e-01 5.2924580806925425e-01 4.6804325577029188e-01  5.4699031753375515e-01 5.2898580590685351e-01 4.6653809768767718e-01  5.4647538520942363e-01 5.2870201805339723e-01 4.6508242514953285e-01  5.4597895578840605e-01 5.2840075827534372e-01 4.6369097149708532e-01  5.4549863078261862e-01 5.2808328018869266e-01 4.6235581718137203e-01  5.4502684631218379e-01 5.2774675908859525e-01 4.6105483542782427e-01  5.4457237439709338e-01 5.2739974457480376e-01 4.5981110508203354e-01  5.4413449330556984e-01 5.2704396342150761e-01 4.5862169732321911e-01  5.4370879706357300e-01 5.2667823781417777e-01 4.5747348493453183e-01  5.4329753906726064e-01 5.2630649746074576e-01 4.5637155561533993e-01  5.4289855661423425e-01 5.2592829214454162e-01 4.5530969817501515e-01  5.4251641136998108e-01 5.2555034875212614e-01 4.5429864863659092e-01  5.4214580981964655e-01 5.2516869833627722e-01 4.5332425432828755e-01  5.4178974074321762e-01 5.2478827983254872e-01 4.5239335884372411e-01  5.4144601305923989e-01 5.2440830964941765e-01 4.5149955953015442e-01  5.4111373145172448e-01 5.2402921376488576e-01 4.5063998819629375e-01  5.4079807352755982e-01 5.2365803821080315e-01 4.4982780157458435e-01  5.4049645779200051e-01 5.2329350790305407e-01 4.4905536153375780e-01  5.4020428862500924e-01 5.2293133905007450e-01 4.4831050892819008e-01  5.3992732204003602e-01 5.2257967366727365e-01 4.4760748767572728e-01  5.3966457808272272e-01 5.2223852455927300e-01 4.4694342925558661e-01  5.3941375229841826e-01 5.2190609617581685e-01 4.4631188266628585e-01  5.3917478389908913e-01 5.2158330404544140e-01 4.4571246673579767e-01  5.3895049066654610e-01 5.2127482539017644e-01 4.4515180129172138e-01  5.4312826953838500e-01 5.2614794953092248e-01 4.5592033318031583e-01  5.7658291621501179e-01 3.9976992560647673e-01 6.4557250981556014e-01  5.3857834748184907e-01 5.2074023072209796e-01 4.4423500371181074e-01  5.7298745573173959e-01 4.8873571269453159e-01 5.7128947912090677e-01  5.3888460650138648e-01 5.2118323480154893e-01 4.4498748490662443e-01  5.6042936370011942e-01 2.8365713752958888e-01 6.7584831482266572e-01  5.4288871228630764e-01 5.2589102809969235e-01 4.5530610173597835e-01  5.5212592601922039e-01 5.3008981731387073e-01 4.8186869889578071e-01  5.4420899430066483e-01 5.2143990586951494e-01 4.6348874108170629e-01  5.7676016411348963e-01 4.0505386051287923e-01 6.4232799751113290e-01  5.4730179106009313e-01 5.2914259643186723e-01 4.6742519936688537e-01  5.7019454485819521e-01 3.3661350570862231e-01 6.7124356784129513e-01  5.7200435691332030e-01 3.4964965498590744e-01 6.6772204242091637e-01  5.5070466064369117e-01 5.3013922198018015e-01 4.7744179161406058e-01  5.7545652822721438e-01 4.6978615613498770e-01 5.9181900039107715e-01  5.3758595309148183e-01 5.1927795698057999e-01 4.4178705866582202e-01  5.7381285561952278e-01 3.7051334269896313e-01 6.5873107673900999e-01  5.6201919927913502e-01 5.1379001132867730e-01 5.2345685897822236e-01  5.3712723153423358e-01 5.1856871063675902e-01 4.4066658900899125e-01  5.5541069035037127e-01 5.2921094773033828e-01 4.9242235829808684e-01  5.6947794841519339e-01 5.0429645612555429e-01 5.5044092719885396e-01  5.6096716724342466e-01 5.2416632609011216e-01 5.1227772731843879e-01  5.3715549378979477e-01 5.1861446855831661e-01 4.4073416887088313e-01  5.1991325082147666e-01 4.7381483214316361e-01 4.0527179409043429e-01  5.6249802628121626e-01 5.2173684204938231e-01 5.1840034774086741e-01  5.6528961427626223e-01 5.1649697036751430e-01 5.3002043096706919e-01  5.3749936918090735e-01 5.1915097062319004e-01 4.4157069379175851e-01  5.4098952821841029e-01 5.2388455979708670e-01 4.5031992874143517e-01  5.7716150666291788e-01 4.4364082186681569e-01 6.1547928292751397e-01  5.7117061570974381e-01 3.4970215050763792e-01 6.6577746698758034e-01  5.4616242882872079e-01 5.2847516456458410e-01 4.6423640131759358e-01  5.4008750353729762e-01 5.2276650621566834e-01 4.4802800331084619e-01  5.1173001637284166e-01 4.4297634650202078e-01 3.9011135699772059e-01  5.5799786454764366e-01 5.2734223477482656e-01 5.0141164386748804e-01  5.6882340489969974e-01 5.0681552589245560e-01 5.4680201508702486e-01  5.3798134047180546e-01 5.1988101893250926e-01 4.4275129254830448e-01  5.6611256557191947e-01 3.1137358759646966e-01 6.7579442492633524e-01  5.7399344275204578e-01 3.6664052747113957e-01 6.6166358796766422e-01  5.3983046569617965e-01 5.2245473733132664e-01 4.4736241333115773e-01  5.4484666090361866e-01 5.2761238620721951e-01 4.6056047721060311e-01  5.7558780322931613e-01 4.6918707172216972e-01 5.9258162548568427e-01  5.7320310771925864e-01 4.6691346049690141e-01 5.8881251792771572e-01  5.4881770402354579e-01 5.2969933790521351e-01 4.7185307347149663e-01  5.3732467957210206e-01 5.1887631358094055e-01 4.4114820534681365e-01  5.4441469273838650e-01 5.2724049254840644e-01 4.5940904573755226e-01  5.2130561524452901e-01 4.7802911442137314e-01 4.0819520934050812e-01  5.6308358064389730e-01 2.9699871548630441e-01 6.7589332730989771e-01  5.5490311014303217e-01 5.2936873664408579e-01 4.9079982634297581e-01  5.7726326190691146e-01 4.3523328668198408e-01 6.2191121792869375e-01  5.4199674899585926e-01 5.2501080496502772e-01 4.5293402439578528e-01  5.3928946149953838e-01 5.2172509758236085e-01 4.4601132149843731e-01  5.5262555810035296e-01 5.3009768398798751e-01 4.8338424601859747e-01  5.7605626368487139e-01 4.2976970433274558e-01 6.2316163544682857e-01  5.5767381805062710e-01 5.2772037981016129e-01 5.0018337384583755e-01  5.7733006372882256e-01 4.2262642775499132e-01 6.3119575515077364e-01  5.4119273373307064e-01 5.2409890852638585e-01 4.5086153095048415e-01  5.4893940899