<?xml version="1.0"?>
<VTKFile type="UnstructuredGrid"  version="0.1"  >
<UnstructuredGrid>
<Piece  NumberOfPoints="4940" NumberOfCells="9650">
<Points>
<DataArray  type="Float64"  NumberOfComponents="3"  format="ascii">500 250 0  0 250 0  250 500 0  250 0 0  256.8885856082646 499.9050767557906 0  263.7719401218049 499.6203791065173 0  270.6448364229772 499.1461232471188 0  277.5020553257866 498.4826693209355 0  284.3383895508592 497.6305211460281 0  291.1486476865662 496.5903258312597 0  297.9276581259182 495.3628732847843 0  304.6702729675493 493.9490956196674 0  311.3713719748657 492.3500664368026 0  318.0258664141369 490.5670000199653 0  324.6287029687753 488.6012504015818 0  331.1748675330201 486.4543103455647 0  337.6593890460416 484.1278102064655 0  344.0773432429536 481.6235166997244 0  350.4238564271474 478.9433315480048 0  356.694109139292 476.0892900492477 0  362.88333985546 473.0635595140469 0  368.9868485575419 469.8684376402048 0  375.0000003153078 466.5063507640667 0  380.9182288257928 462.9798520074548 0  386.7370398729688 459.2916193419558 0  392.4520147244077 455.444453565817 0  398.0588135356345 451.4412761437442 0  403.5531785622926 447.285127045646 0  408.9309374414144 442.9791624087773 0  414.1880064015299 438.5266521049243 0  419.3203932989752 433.9309773069245 0  424.324200661095 429.1956279150535 0  429.1956286596235 424.3241998957182 0  433.9309780058756 419.3203925397119 0  438.5266527445345 414.1880056671062 0  442.9791630130591 408.9309367076756 0  447.2851276060475 403.5531778422888 0  451.4412766621026 398.0588128303826 0  455.4444540361634 392.4520140460735 0  459.2916197786263 386.7370392045948 0  462.9798524073514 380.9182281752347 0  466.5063511234856 374.9999996927758 0  469.8684379657123 368.9868479560565 0  473.0635598144817 362.8833392617846 0  476.0892903190255 356.6941085676214 0  478.9433317963513 350.4238558609745 0  481.6235169154735 344.0773427117675 0  484.12781039012 337.6593885555221 0  486.4543105028062 331.1748670749914 0  488.601250531677 324.6287025528375 0  490.5670001317469 318.0258660188321 0  492.3500665291326 311.3713716102628 0  493.949095695951 304.6702726271575 0  495.3628733416623 297.9276578347343 0  496.5903258712341 291.1486474470129 0  497.6305211749058 284.3383893426084 0  498.4826693388848 277.502055163614 0  499.1461232580606 270.6448362909296 0  499.6203791109319 263.7719400417897 0  499.9050767571306 256.8885855596534 0  499.9050767559877 243.1114143988867 0  499.6203791069493 236.2280598860241 0  499.1461232485393 229.3551635941651 0  498.4826693235677 222.4979446979962 0  497.6305211491849 215.6616104719064 0  496.5903258357701 208.8513523404629 0  495.3628732906988 202.0723419043604 0  493.9490956264813 195.3297270628552 0  492.3500664487791 188.6286280724281 0  490.5670000344809 181.9741336371959 0  488.6012504175981 175.3712970824318 0  486.4543103623226 168.8251325157939 0  484.1278102222298 162.3406109960628 0  481.6235167152198 155.9226567951971 0  478.9433315621651 149.5761436051346 0  476.0892900516498 143.3058908657982 0  473.063559513628 137.1166601437124 0  469.8684376406648 131.0131514433083 0  466.5063507675389 124.9999996907064 0  462.9798520124137 119.0817711822745 0  459.2916193464549 113.2629601339176 0  455.4444535642773 107.5479852733717 0  451.4412761528674 101.9411864767781 0  447.2851270583545 96.44682145403524 0  442.9791624165781 91.06906256805769 0  438.5266521117469 85.81199360630404 0  433.9309773156125 80.67960671046254 0  429.1956279150353 75.67579933888632 0  424.3241998888952 70.80437133373906 0  419.3203925223282 66.06902197812161 0  414.1880056411937 61.47334723289828 0  408.9309366751728 57.0208369601728 0  403.5531778009394 52.71487236176898 0  398.058812796452 48.55872331295853 0  392.4520140187753 44.55554594490843 0  386.7370391799677 40.70838020528396 0  380.9182281475119 37.02014757560744 0  374.9999996718656 33.49364886444181 0  368.9868479340393 30.13156202237255 0  362.8833392380029 26.93644017348339 0  356.6941085456942 23.91070967062674 0  350.4238558420009 21.0566681953261 0  344.0773426899492 18.37648307566465 0  337.6593885328982 15.87218960140942 0  331.1748670549786 13.54568949032341 0  324.6287025315056 11.39874946165088 0  318.0258660010876 9.432999863235466 0  311.3713716017894 7.649933468721599 0  304.6702726190621 6.050904302234756 0  297.9276578269805 4.637126656823085 0  291.148647441857 3.409674127905504 0  284.3383893425031 2.369478825079682 0  277.502055159398 1.517330660648639 0  270.6448362875833 0.853876741662134 0  263.7719400401456 0.3796208889774277 0  256.8885855592052 0.09492324285704967 0  243.1114143979462 0.09492324403817065 0  236.2280598850882 0.3796208931023841 0  229.3551635938215 0.8538767514891958 0  222.4979446968584 1.517330676558146 0  215.6616104703111 2.369478851036291 0  208.8513523382973 3.409674164591252 0  202.0723419066374 4.637126708856528 0  195.3297270659513 6.050904372824903 0  188.628628074828 7.649933550613184 0  181.9741336377093 9.432999965373938 0  175.3712970793675 11.39874958336037 0  168.8251325057572 13.54568964112298 0  162.340610986655 15.87218978129263 0  155.9226567874317 18.37648328793418 0  149.576143602509 21.05666843898663 0  143.3058908718157 23.91070994551046 0  137.1166601505524 26.93644048291054 0  131.0131514451933 30.13156235831508 0  124.9999996848412 33.49364923584736 0  119.0817711715717 37.0201479941652 0  113.2629601211624 40.70838066187849 0  107.5479852622251 44.55554644345162 0  101.9411864693332 48.55872385260452 0  96.44682143286516 52.71487295812284 0  91.06906254351222 57.02083760363669 0  85.81199358272519 61.4733479087879 0  80.67960667988106 66.06902271253972 0  75.67579930062769 70.80437212218331 0  70.80437129287643 75.67580015310926 0  66.06902193673014 80.67960752263491 0  61.47334718684866 85.81199441168215 0  57.02083692524275 91.0690633672404 0  52.71487232786438 96.44682224262129 0  48.55872328070024 101.941187247437 0  44.55554591578033 107.5479860232332 0  40.7083801742321 113.2629608675606 0  37.02014754791168 119.0817718975441 0  33.49364883372994 125.000000381329 0  30.13156199866361 131.0131521097709 0  26.9364401549829 137.1166607985551 0  23.91070965524918 143.3058914868915 0  21.05666818346614 149.576144185037 0  18.37648306853811 155.9226573275967 0  15.8721895918909 162.3406114925245 0  13.54568948170046 168.8251329701392 0  11.39874945301878 175.3712974960928 0  9.432999857087736 181.9741340206533 0  7.649933466342702 188.6286284076045 0  6.050904301250966 195.3297273853278 0  4.637126656808988 202.0723421730917 0  3.409674127767772 208.8513525589684 0  2.369478824521138 215.6616106615248 0  1.517330660909465 222.4979448382452 0  0.8538767414496533 229.355163714981 0  0.3796208887135322 236.2280599646376 0  0.09492324266324204 243.1114144478261 0  0.0949232442452228 256.8885856095658 0  0.3796208935834784 263.7719401236316 0  0.8538767530323526 270.6448364248016 0  1.517330679476544 277.5020553295092 0  2.369478854618649 284.3383895555228 0  3.409674170191892 291.1486476952655 0  4.6371267162381 297.9276581311522 0  6.050904381420935 304.6702729724059 0  7.649933562385399 311.3713719716595 0  9.43299997979841 318.0258664133013 0  11.3987495994252 324.6287029719946 0  13.54568965885832 331.174867545904 0  15.87218979367188 337.6593890464085 0  18.37648329843151 344.0773432384132 0  21.05666844777872 350.423856417535 0  23.91070995156048 356.6941091410045 0  26.93644048988043 362.8833398632205 0  30.13156235982007 368.9868485575877 0  33.49364924138357 375.0000003247478 0  37.0201480006036 380.9182288389023 0  40.70838066758398 386.7370398875706 0  44.55554644477201 392.4520147396792 0  48.55872386086904 398.0588135419111 0  52.71487295981296 403.5531785693063 0  57.02083760525949 408.9309374584583 0  61.47334790862246 414.1880064170849 0  66.06902271205095 419.320393319588 0  70.80437211216579 424.3242006890749 0  75.67580013809859 429.195628692521 0  80.6796075127923 433.930978054209 0  85.81199439754931 438.5266528008431 0  91.06906334717917 442.9791630582355 0  96.44682221438322 447.2851276501571 0  101.9411872243843 451.441276702356 0  107.5479859945825 455.4444540643537 0  113.2629608446994 459.2916198108319 0  119.0817718768376 462.9798524393601 0  125.0000003647644 466.5063511567065 0  131.0131521012763 469.8684379967393 0  137.1166607840049 473.0635598376539 0  143.3058914748804 476.0892903390826 0  149.5761441732679 478.9433318113714 0  155.9226573130112 481.6235169255377 0  162.3406114779862 484.1278104026658 0  168.8251329570439 486.4543105138039 0  175.3712974805475 488.601250542119 0  181.9741340135204 490.5670001408953 0  188.6286284005059 492.3500665318597 0  195.3297273788229 493.9490956972913 0  202.0723421640089 495.3628733414168 0  208.8513525529672 496.5903258712308 0  215.6616106544547 497.6305211744985 0  222.4979448327038 498.4826693384772 0  229.3551637102845 499.1461232581612 0  236.2280599621369 499.6203791111485 0  243.1114144470173 499.9050767573145 0  155.2373389820306 474.8197567317462 0  25.36256300907667 153.9152755065208 0  432.3709625126712 412.6214396304305 0  6.013151705810699 246.637913163471 0  246.6379131630491 493.986848294322 0  338.6995838441862 22.68244767887072 0  477.3175523131281 338.6995838660569 0  493.9868482700757 246.6379131399102 0  246.6201155078769 6.218451882810491 0  417.6179310263282 72.7156044707053 0  102.2232990934413 445.0100869616822 0  63.66330858966404 92.20354579482142 0  391.3105220491464 50.73522820883105 0  72.79295043967942 418.0702734974704 0  448.290574428537 108.25674339002 0  402.4604651193511 440.7462829841712 0  97.55317348421397 59.11376320116034 0  136.7376477664901 33.58246472647134 0  363.3288394375288 465.6947312928271 0  44.0678766556007 381.0860953771871 0  469.6905266180034 142.3890690100806 0  22.68244791668644 338.6995843487432 0  338.699584349159 477.317552078365 0  173.389488083762 18.6681884918202 0  483.4809734778481 179.7121987795732 0  13.50237455842738 306.4709525540879 0  305.9825168523021 487.24416992
[...]
<PointData  Vectors="f_12"> 
<DataArray  type="Float64"  Name="f_12"  NumberOfComponents="3" format="ascii">5.7587096112304192e-01 3.8758725440173641e-01 6.5222816508356563e-01  5.6060887766163348e-01 2.8349072108878459e-01 6.7647762720569138e-01  5.7744130823536943e-01 4.2712800652289346e-01 6.2819827932462202e-01  5.5855868041911849e-01 5.2491719849624441e-01 5.0494313302628857e-01  5.7744384790228709e-01 4.2781130540508133e-01 6.2770988971131592e-01  5.7744535060920277e-01 4.2843194571300847e-01 6.2726397440087578e-01  5.7744606213137706e-01 4.2903380221383991e-01 6.2682941305320306e-01  5.7744611736530782e-01 4.2958256983539850e-01 6.2643149292741629e-01  5.7744559634138093e-01 4.3009393070293184e-01 6.2605908489931505e-01  5.7744466223168278e-01 4.3056579067762285e-01 6.2571412375283297e-01  5.7744340663384053e-01 4.3099898252775420e-01 6.2539630964395321e-01  5.7744189609659580e-01 4.3139721534529912e-01 6.2510313484991609e-01  5.7744023456969007e-01 4.3175704212033161e-01 6.2483738636385033e-01  5.7743851828095427e-01 4.3207607430404010e-01 6.2460110204474528e-01  5.7743701625621080e-01 4.3232818375236426e-01 6.2441397610623428e-01  5.7743520776558854e-01 4.3259840876593864e-01 6.2421281872411893e-01  5.7743408233874216e-01 4.3275529485190517e-01 6.2409585442310767e-01  5.7743279616996157e-01 4.3291940071394625e-01 6.2397318882883035e-01  5.7743180727832233e-01 4.3303349773775257e-01 6.2388766350071423e-01  5.7743104201387874e-01 4.3311280007977637e-01 6.2382801572450475e-01  5.7743048553411380e-01 4.3316186873724261e-01 6.2379085260775047e-01  5.7743040354731168e-01 4.3314505662079006e-01 6.2380289661295163e-01  5.7743062738465889e-01 4.3308430764234390e-01 6.2384771178774956e-01  5.7743088545943122e-01 4.3301409120068179e-01 6.2389943683242177e-01  5.7743144426644955e-01 4.3289908050121806e-01 6.2398453145199329e-01  5.7743233921788006e-01 4.3272535307259496e-01 6.2411320810032067e-01  5.7743358752499230e-01 4.3248705673761934e-01 6.2428974536285264e-01  5.7743472871121027e-01 4.3224090727717285e-01 6.2447164902477659e-01  5.7743592973923330e-01 4.3195442079743657e-01 6.2468298395653410e-01  5.7743733281500087e-01 4.3158967738172577e-01 6.2495169516477578e-01  5.7743849575594575e-01 4.3120557841269141e-01 6.2523376424038379e-01  5.7743948005012735e-01 4.3076725247219044e-01 6.2555466562884632e-01  5.7744017656158775e-01 4.3027905376469056e-01 6.2591095366859528e-01  5.7744039795580504e-01 4.2975985583005988e-01 6.2628834802295497e-01  5.7744005155413003e-01 4.2915873568649743e-01 6.2672356268140061e-01  5.7743892437905331e-01 4.2851521117575686e-01 6.2718733610764199e-01  5.7743691350149640e-01 4.2784820146780639e-01 6.2766553940892822e-01  5.7743365955173998e-01 4.2710012429105892e-01 6.2819901717852933e-01  5.7742879186912877e-01 4.2626659611037682e-01 6.2878992861603256e-01  5.7742233206281612e-01 4.2539872767967218e-01 6.2940112873494769e-01  5.7741413112234363e-01 4.2450051053840909e-01 6.3002927347552229e-01  5.7740340483911001e-01 4.2351497000933663e-01 6.3071350344588062e-01  5.7738976467854131e-01 4.2243984956523661e-01 6.3145426525042037e-01  5.7737315952444057e-01 4.2131600333494085e-01 6.3222178272341534e-01  5.7735273595046466e-01 4.2010946515330261e-01 6.3303821940278815e-01  5.7732824588505527e-01 4.1882809690747130e-01 6.3389699350604156e-01  5.7729919368063010e-01 4.1747547393123313e-01 6.3479408437625262e-01  5.7726514997448242e-01 4.1605400175662993e-01 6.3572656358056023e-01  5.7722394410142575e-01 4.1450448166883436e-01 6.3673077308703507e-01  5.7717647499668079e-01 4.1288231230674122e-01 6.3776917456026960e-01  5.7712126027446153e-01 4.1117140479384462e-01 6.3884898480525021e-01  5.7705753253989300e-01 4.0935797973182542e-01 6.3997775822645986e-01  5.7698443545567579e-01 4.0745294288656003e-01 6.4114494855501569e-01  5.7689939049826433e-01 4.0540951123909086e-01 6.4237676505495722e-01  5.7680254850263402e-01 4.0326112602165343e-01 6.4364898632957279e-01  5.7669297091672478e-01 4.0101075190610602e-01 6.4495655145491204e-01  5.7656738560155540e-01 3.9861564758773815e-01 6.4632025739269017e-01  5.7642530971057515e-01 3.9609372106488283e-01 6.4772553754221784e-01  5.7626596988161438e-01 3.9344966177703811e-01 6.4916493689076027e-01  5.7609111191454165e-01 3.9072350878933709e-01 6.5061714866463993e-01  5.7564637059958046e-01 3.8452119138163610e-01 6.5376760880041895e-01  5.7538936217636738e-01 3.8125214354389159e-01 6.5535434667995163e-01  5.7510337953210777e-01 3.7783651427576154e-01 6.5695521192299633e-01  5.7477869013654559e-01 3.7417905111601413e-01 6.5860533840758695e-01  5.7441709961002552e-01 3.7034651484446635e-01 6.6026363032690882e-01  5.7401514278261534e-01 3.6632116390826264e-01 6.6192691151792127e-01  5.7356679258830978e-01 3.6209095027133853e-01 6.6358589883074237e-01  5.7306785236133262e-01 3.5764063861104900e-01 6.6523363368626953e-01  5.7251565253547732e-01 3.5298299745956924e-01 6.6685000408498729e-01  5.7190621096436312e-01 3.4811943472233520e-01 6.6841823855517613e-01  5.7122503584041995e-01 3.4297459551840398e-01 6.6994024907205796e-01  5.7047899824378767e-01 3.3763655452047064e-01 6.7137216639509922e-01  5.6965566942474388e-01 3.3205228468071002e-01 6.7270369719614809e-01  5.6874337059252744e-01 3.2618747236356083e-01 6.7391610349511910e-01  5.6773895678333330e-01 3.2006641668471941e-01 6.7497132787233083e-01  5.6663721397414513e-01 3.1370329783246503e-01 6.7583476233181861e-01  5.6543036209432807e-01 3.0709441116329966e-01 6.7647009437418471e-01  5.6410953113219497e-01 3.0024191751675217e-01 6.7683551358304350e-01  5.6266255261962239e-01 2.9313116109399096e-01 6.7688507439816148e-01  5.6108396971217089e-01 2.8578426077689933e-01 6.7656634966632878e-01  5.5938488651479434e-01 2.7829622169744966e-01 6.7583502552052077e-01  5.5751657792757703e-01 2.7052463840222268e-01 6.7459911087788149e-01  5.5550065514596059e-01 2.6261047061592219e-01 6.7281279175935327e-01  5.5332330746114411e-01 2.5455038401989177e-01 6.7040459778711059e-01  5.5098218399276500e-01 2.4640123798647318e-01 6.6729726585234050e-01  5.4847933431043394e-01 2.3822655840299956e-01 6.6342660672239062e-01  5.4581772177750720e-01 2.3009022845706392e-01 6.5873006074727514e-01  5.4300762027835980e-01 2.2207422187930781e-01 6.5316630442099988e-01  5.4006286095818101e-01 2.1425841512585506e-01 6.4670029824662112e-01  5.3701179772182139e-01 2.0675954998553014e-01 6.3935146945585319e-01  5.3389710508623156e-01 1.9969549786003452e-01 6.3119436284802943e-01  5.3077788730315012e-01 1.9319359949840670e-01 6.2238521340033004e-01  5.2774649052937050e-01 1.8741020419777152e-01 6.1323079288642202e-01  5.2487221798891925e-01 1.8240608559817720e-01 6.0401155172874266e-01  5.2229098421364506e-01 1.7830830448888707e-01 5.9529697393156633e-01  5.2021833828061914e-01 1.7530577225621377e-01 5.8799955072806298e-01  5.1881717341428324e-01 1.7346159816078063e-01 5.8289777541598220e-01  5.1828091895312400e-01 1.7291926045043418e-01 5.8087687340334537e-01  5.1898483827742348e-01 1.7417120180377288e-01 5.8337292199872792e-01  5.2121761648084530e-01 1.7787784841608328e-01 5.9123487132178543e-01  5.2517243286796189e-01 1.8508175968762675e-01 6.0437475901671600e-01  5.3137205155092704e-01 1.9813780304013121e-01 6.2299068271500146e-01  5.3948745445380131e-01 2.1866018319009675e-01 6.4333570990343536e-01  5.4898075278299208e-01 2.4825967299430526e-01 6.6085144152410791e-01  5.5842057992246052e-01 2.8576551240314385e-01 6.6967102138153356e-01  5.6634302600711572e-01 3.2748341978481244e-01 6.6733996592966260e-01  5.7179714624441980e-01 3.6849266315417584e-01 6.5531662428423376e-01  5.7466798657689511e-01 4.0514404371151669e-01 6.3737809317400773e-01  5.7538010312195975e-01 4.3584297621936779e-01 6.1706091917312567e-01  5.7456088144523287e-01 4.6052737399015620e-01 5.9670818989443641e-01  5.7278550229665182e-01 4.7973313683892838e-01 5.7775862119532606e-01  5.7047053195452224e-01 4.9413304141044112e-01 5.6088421123401333e-01  5.6794382214702588e-01 5.0480219984964270e-01 5.4614363955558420e-01  5.6537556318898219e-01 5.1264844000095477e-01 5.3329682502419018e-01  5.6291668294757380e-01 5.1826792336419969e-01 5.2228963678095819e-01  5.6062170531423428e-01 5.2223048255409843e-01 5.1286724542298590e-01  5.5680548686927533e-01 5.2654200010407282e-01 4.9862522323868208e-01  5.5502984543448519e-01 5.2793375220462380e-01 4.9234232250946364e-01  5.5380877151259267e-01 5.2844267392998290e-01 4.8828502296129067e-01  5.5274680216422567e-01 5.2876739184427379e-01 4.8482308779285765e-01  5.5192439424177309e-01 5.2893508494057828e-01 4.8218108609502741e-01  5.5137751881272401e-01 5.2898829819462911e-01 4.8045670371959986e-01  5.5108744344420879e-01 5.2900415397404299e-01 4.7954704552871413e-01  5.5102918687699842e-01 5.2900927851851487e-01 4.7936262168133970e-01  5.5122140419471999e-01 5.2900481120112763e-01 4.7996054698595952e-01  5.5155974932744767e-01 5.2899760709476407e-01 4.8101217974763727e-01  5.5228458800558833e-01 5.2889856604574992e-01 4.8331245678535245e-01  5.5320434219343928e-01 5.2867167433351669e-01 4.8628384846117667e-01  5.5435385652838876e-01 5.2823189900035228e-01 4.9008319194960770e-01  5.5568864135800478e-01 5.2751319142010933e-01 4.9460060705333686e-01  5.5726860057724248e-01 5.2631019784090038e-01 5.0014834122694762e-01  5.5910027720576716e-01 5.2441080455572164e-01 5.0687837080253006e-01  5.6109874178203767e-01 5.2167613542562230e-01 5.1462392679524105e-01  5.6325358340282539e-01 5.1786222005907401e-01 5.2351938389596331e-01  5.6552434674186658e-01 5.1266120150994310e-01 5.3367254672328990e-01  5.6785640077611566e-01 5.0570234710843354e-01 5.4520993519070160e-01  5.7016887568046892e-01 4.9645870713610829e-01 5.5831318800672158e-01  5.7232777092564857e-01 4.8460625476218394e-01 5.7287557246513676e-01  5.7414256882922299e-01 4.6980776159300053e-01 5.8864888719912867e-01  5.7540185797544818e-01 4.5161247074522493e-01 6.0540198158375380e-01  5.7584969174904077e-01 4.2970957511800001e-01 6.2260743211638536e-01  5.7519826720952050e-01 4.0411933839569952e-01 6.3930193336543339e-01  5.7320551254815710e-01 3.7532147927620740e-01 6.5413121250909445e-01  5.6975849515724131e-01 3.4448341679689731e-01 6.6546673720180316e-01  5.6496505999746949e-01 3.1333048516816331e-01 6.7183911416806719e-01  5.5920954630637443e-01 2.8397821685787067e-01 6.7253415745504230e-01  5.5306135722633953e-01 2.5825696568251377e-01 6.6800188969433150e-01  5.4717540374227014e-01 2.3738684245592567e-01 6.5987886379618976e-01  5.4200152725438311e-01 2.2144269498978070e-01 6.5021993154579993e-01  5.3783332891142888e-01 2.1004054681410383e-01 6.4089504322941415e-01  5.3466044012932434e-01 2.0213098406800056e-01 6.3296046539070761e-01  5.3254918567788823e-01 1.9720195263726228e-01 6.2730027217884565e-01  5.3137822088743292e-01 1.9455004509657034e-01 6.2404476706151857e-01  5.3101471477592888e-01 1.9367452604717283e-01 6.2303980841349516e-01  5.3132489948031847e-01 1.9421944816082670e-01 6.2396717571982130e-01  5.3217682354865148e-01 1.9592370818296775e-01 6.2642099317302580e-01  5.3339521746838725e-01 1.9847328506162090e-01 6.2983900139203464e-01  5.3490581293355255e-01 2.0177384465783024e-01 6.3393095310484315e-01  5.3666553632214797e-01 2.0579855663825219e-01 6.3850439458901753e-01  5.3853626824289991e-01 2.1028640308052299e-01 6.4313680876409596e-01  5.4047332659065561e-01 2.1516927095482294e-01 6.4767399696725214e-01  5.4244505311149649e-01 2.2039010068158749e-01 6.5201858614513764e-01  5.4444120929394213e-01 2.2594662510401253e-01 6.5612409380538916e-01  5.4635845890266999e-01 2.3155759264572764e-01 6.5977385688603174e-01  5.4825259217722588e-01 2.3737118413632480e-01 6.6309737567997273e-01  5.5006973051733254e-01 2.4321558861073331e-01 6.6599864186119162e-01  5.5183584908457939e-01 2.4917281323315243e-01 6.6854236820688873e-01  5.5350883918561700e-01 2.5507212224731263e-01 6.7068541493998568e-01  5.5508902847761976e-01 2.6089908690185432e-01 6.7245821559660113e-01  5.5659005771269676e-01 2.6667938688302872e-01 6.7389982775472079e-01  5.5801209833726473e-01 2.7239381643538507e-01 6.7503593690016539e-01  5.5934999124002116e-01 2.7799764563200929e-01 6.7588503952530121e-01  5.6178987255931478e-01 2.8885537303468561e-01 6.7683721793884499e-01  5.6289520449851582e-01 2.9408112627626515e-01 6.7698624867330681e-01  5.6393613107122154e-01 2.9920027485117601e-01 6.7694999018220559e-01  5.6490782141800644e-01 3.0416795366688487e-01 6.7674655455292321e-01  5.6581605388271650e-01 3.0899375840214510e-01 6.7639687326976805e-01  5.6666483026397685e-01 3.1367945743533987e-01 6.7591788091748628e-01  5.6745758992291673e-01 3.1822624825494678e-01 6.7532506509828649e-01  5.6819704868827869e-01 3.2263084503383566e-01 6.7463358326781575e-01  5.6888705958478714e-01 3.2689934385816416e-01 6.7385609311905881e-01  5.6953050908886960e-01 3.3103326072317035e-01 6.7300399250261111e-01  5.7013002512935995e-01 3.3503434593255654e-01 6.7208832767926430e-01  5.7068676995899814e-01 3.3889085042177997e-01 6.7112279156708066e-01  5.7120867320038404e-01 3.4264696545356838e-01 6.7010460463804145e-01  5.7169526174857233e-01 3.4628400553260202e-01 6.6904769754910332e-01  5.7214522378257260e-01 3.4977871823100243e-01 6.6796612088515417e-01  5.7256956396457437e-01 3.5320609488778543e-01 6.6684306557116946e-01  5.7296374089494728e-01 3.5651597687879838e-01 6.6570147876842600e-01  5.7332550513565650e-01 3.5967501784197342e-01 6.6455882338583772e-01  5.7366391911550874e-01 3.6275141650325332e-01 6.6339765442979493e-01  5.7397891038730053e-01 3.6572924479637603e-01 6.6222806145224200e-01  5.7427173930128605e-01 3.6861350081736766e-01 6.6105277186045708e-01  5.7454340431753492e-01 3.7140262293783893e-01 6.5987635969804093e-01  5.7479622420830379e-01 3.7410852631244829e-01 6.5869798968455473e-01  5.7503128950247240e-01 3.7673488541058997e-01 6.5751924178870402e-01  5.7524751241731620e-01 3.7925669951944851e-01 6.5635543141690078e-01  5.7544826887347034e-01 3.8170495992003506e-01 6.5519489090636673e-01  5.7563522007452583e-01 3.8408776023689284e-01 6.5403749925517896e-01  5.7580585576234167e-01 3.8636609666892613e-01 6.5290408365942521e-01  5.7596485403550146e-01 3.8859167942999190e-01 6.5177203953153506e-01  5.7611153063532616e-01 3.9074440384395037e-01 6.5065372810306377e-01  5.7624623276962050e-01 3.9282089411880666e-01 6.4955335985267038e-01  5.7637015442852946e-01 3.9483050999184816e-01 6.4846783706535871e-01  5.7648392892381661e-01 3.9677335317271872e-01 6.4739925568596079e-01  5.7658854226862788e-01 3.9865819378611911e-01 6.4634445111368488e-01  5.7668498981508931e-01 4.0049446066224809e-01 6.4529966519574156e-01  5.7677188232697008e-01 4.0224362927138302e-01 6.4428891913497621e-01  5.7685077044001132e-01 4.0392791215591084e-01 6.4330091470278739e-01  5.7692406742302094e-01 4.0559079617884675e-01 6.4231129080760130e-01  5.7698976738922814e-01 4.0717752367222892e-01 6.4135402535753372e-01  5.7704861294464382e-01 4.0869542665563691e-01 6.4042615622628130e-01  5.7710211208458773e-01 4.1017114747427624e-01 6.3951277518669492e-01  5.7715009694985919e-01 4.1159015067820870e-01 6.3862399835707262e-01  5.7719331635370741e-01 4.1296812216361894e-01 6.3775086692926697e-01  5.7723135140881132e-01 4.1427420411934979e-01 6.3691436291639514e-01  5.7726540379012714e-01 4.1554522485687262e-01 6.3609162827528853e-01  5.7729530622508285e-01 4.1675995721949499e-01 6.3529745010761007e-01  5.7732171188841930e-01 4.1793304935948172e-01 6.3452307787901352e-01  5.7734496844045868e-01 4.1906930180233259e-01 6.3376617535145274e-01  5.7736467183959406e-01 4.2013865179498883e-01 6.3304759871350313e-01  5.7738149828995144e-01 4.2115792190326412e-01 6.3235684424068761e-01  5.7739609884052201e-01 4.2215275157120613e-01 6.3167732759297435e-01  5.7740817650315224e-01 4.2309008494158351e-01 6.3103219158598634e-01  5.7741806446669230e-01 4.2397554354708217e-01 6.3041840766010449e-01  5.7742616170901906e-01 4.2482412622396942e-01 6.2982609562453329e-01  5.7743265890747519e-01 4.2563392804098765e-01 6.2925733958172247e-01  5.7743758774014420e-01 4.2639085914952080e-01 6.2872236570174267e-01  5.7716551489512891e-01 4.1205845132994506e-01 6.3832951133086802e-01  5.3522381991202039e-01 2.0248829494714640e-01 6.3477920203714100e-01  5.7744062430061893e-01 4.2917483375241355e-01 6.2671357192317090e-01  5.5989441445100396e-01 2.8034644403854464e-01 6.7616685800631371e-01  5.7743865264337735e-01 4.2650847590605273e-01 6.2864016733353156e-01  5.4235815049497149e-01 2.2775230884872019e-01 6.4911386839494589e-01  5.7727486407874573e-01 4.1642582396421035e-01 6.3548521803927793e-01  5.7573777721665353e-01 3.8572158060801914e-01 6.5317623369881461e-01  5.5807871677745369e-01 5.2539139056250550e-01 5.0321182270024889e-01  5.3833255669254876e-01 2.0994453802251162e-01 6.4260444561855845e-01  5.7652202685152321e-01 3.9744409584405643e-01 6.4702669488951081e-01  5.4866266737827807e-01 2.4292420820955049e-01 6.6202354833317534e-01  5.2298672472929064e-01 1.7938196515848875e-01 5.9769367603276158e-01  5.7570870909081018e-01 3.8505198321548340e-01 6.5356212122818547e-01  5.5637144721679255e-01 2.6597281211223084e-01 6.7364253327317869e-01  5.7743693398102558e-01 4.3186282707149626e-01 6.2475232896721844e-01  5.7568992721140622e-01 4.3849199474634720e-01 6.1583120903907407e-01  5.6257595803947880e-01 5.1905257897780077e-01 5.2074586912257725e-01  5.7743285435534697e-01 4.3288509986480811e-01 6.2399852015453028e-01  5.7411915409855963e-01 3.6709394553368829e-01 6.6167798698190294e-01  5.6594252612620499e-01 3.0985854844066946e-01 6.7623664474625633e-01  5.7141385492618291e-01 3.4415774144154709e-01 6.6967769232641094e-01  5.7743540531630366e-01 4.3259920455543721e-01 6.2421293314590443e-01  5.5329636667264481e-01 5.2861311050745197e-01 4.8661268275142555e-01  5.7143952758667815e-01 3.4456183747501784e-01 6.6948818920870790e-01  5.6847397162422253e-01 3.2432365814250025e-01 6.7433890969780086e-01  5.7744274971031284e-01 4.3127398111470050e-01 6.2519504661475656e-01  5.7735114256613818e-01 4.1936789290821097e-01 6.3356760368287457e-01  5.4716769746231908e-01 2.3401035352490684e-01 6.6122826593835193e-01  5.7512562290808666e-01 4.4516353514730123e-01 6.0959133487345529e-01  5.7692835172971024e-01 4.0607323448103361e-01 6.4198098103527290e-01  5.7741794416152559e-01 4.2484864571772024e-01 6.2978773080391948e-01  5.5156545883026964e-01 5.2894237494422824e-01 4.8107144781659728e-01  5.7371946462253398e-01 3.6350391325476594e-01 6.6304279019829515e-01  5.6529596616750988e-01 3.0620694450413394e-01 6.7661827419377685e-01  5.7744645194750122e-01 4.2959198683111438e-01 6.2642569844611806e-01  5.1792519413810012e-01 1.7262680451867735e-01 5.7951158341874554e-01  5.3058276448934105e-01 1.9289225697549717e-01 6.2175636711199667e-01  5.7741110905323956e-01 4.2330672241224987e-01 6.3088359539554106e-01  5.7694587140316389e-01 4.0609289694407047e-01 6.4201157965784639e-01  5.5433339674978288e-01 2.5808119727431333e-01 6.7164346236827688e-01  5.6726141824452059e-01 5.0690211248193306e-01 5.4274205170183865e-01  5.7649226052679192e-01 3.9725510424752231e-01 6.4708349415314192e-01  5.7743478700252293e-01 4.3244993468619064e-01 6.2432003830135241e-01  5.7713738514854884e-01 4.1163460035376387e-01 6.3856039049937630e-01  5.5354049306973696e-01 5.2848601202828538e-01 4.8744467831265820e-01  5.6833663291734204e-01 3.4195685967644840e-01 6.6367716667523413e-01  5.7489549782011062e-01 3.7546067254061488e-01 6.5803801658135741e-01  5.4689058492189424e-01 2.3330891084631697e-01 6.6069119129823128e-01  5.7727550429032948e-01 4.1592937765070109e-01 6.3584241174753309e-01  5.7743451593060524e-01 4.2711722980579453e-01 6.2818916843014416e-01  5.7512635046993221e-01 3.7782495749945427e-01 6.5702169599948979e-01  5.7159790109485153e-01 4.8860497386205337e-01 5.6798492012038126e-01  5.7313934604458228e-01 3.5803013365285302e-01 6.6516215638645948e-01  5.4126557752237636e-01 2.1724214263255628e-01 6.4945133300474700e-01  5.7737770905480579e-01 4.2156959778301778e-01 6.3205102355577003e-01  5.7616317453