<?xml version="1.0"?>
<VTKFile type="UnstructuredGrid"  version="0.1"  >
<UnstructuredGrid>
<Piece  NumberOfPoints="4940" NumberOfCells="9650">
<Points>
<DataArray  type="Float64"  NumberOfComponents="3"  format="ascii">500 250 0  0 250 0  250 500 0  250 0 0  256.8885856082646 499.9050767557906 0  263.7719401218049 499.6203791065173 0  270.6448364229772 499.1461232471188 0  277.5020553257866 498.4826693209355 0  284.3383895508592 497.6305211460281 0  291.1486476865662 496.5903258312597 0  297.9276581259182 495.3628732847843 0  304.6702729675493 493.9490956196674 0  311.3713719748657 492.3500664368026 0  318.0258664141369 490.5670000199653 0  324.6287029687753 488.6012504015818 0  331.1748675330201 486.4543103455647 0  337.6593890460416 484.1278102064655 0  344.0773432429536 481.6235166997244 0  350.4238564271474 478.9433315480048 0  356.694109139292 476.0892900492477 0  362.88333985546 473.0635595140469 0  368.9868485575419 469.8684376402048 0  375.0000003153078 466.5063507640667 0  380.9182288257928 462.9798520074548 0  386.7370398729688 459.2916193419558 0  392.4520147244077 455.444453565817 0  398.0588135356345 451.4412761437442 0  403.5531785622926 447.285127045646 0  408.9309374414144 442.9791624087773 0  414.1880064015299 438.5266521049243 0  419.3203932989752 433.9309773069245 0  424.324200661095 429.1956279150535 0  429.1956286596235 424.3241998957182 0  433.9309780058756 419.3203925397119 0  438.5266527445345 414.1880056671062 0  442.9791630130591 408.9309367076756 0  447.2851276060475 403.5531778422888 0  451.4412766621026 398.0588128303826 0  455.4444540361634 392.4520140460735 0  459.2916197786263 386.7370392045948 0  462.9798524073514 380.9182281752347 0  466.5063511234856 374.9999996927758 0  469.8684379657123 368.9868479560565 0  473.0635598144817 362.8833392617846 0  476.0892903190255 356.6941085676214 0  478.9433317963513 350.4238558609745 0  481.6235169154735 344.0773427117675 0  484.12781039012 337.6593885555221 0  486.4543105028062 331.1748670749914 0  488.601250531677 324.6287025528375 0  490.5670001317469 318.0258660188321 0  492.3500665291326 311.3713716102628 0  493.949095695951 304.6702726271575 0  495.3628733416623 297.9276578347343 0  496.5903258712341 291.1486474470129 0  497.6305211749058 284.3383893426084 0  498.4826693388848 277.502055163614 0  499.1461232580606 270.6448362909296 0  499.6203791109319 263.7719400417897 0  499.9050767571306 256.8885855596534 0  499.9050767559877 243.1114143988867 0  499.6203791069493 236.2280598860241 0  499.1461232485393 229.3551635941651 0  498.4826693235677 222.4979446979962 0  497.6305211491849 215.6616104719064 0  496.5903258357701 208.8513523404629 0  495.3628732906988 202.0723419043604 0  493.9490956264813 195.3297270628552 0  492.3500664487791 188.6286280724281 0  490.5670000344809 181.9741336371959 0  488.6012504175981 175.3712970824318 0  486.4543103623226 168.8251325157939 0  484.1278102222298 162.3406109960628 0  481.6235167152198 155.9226567951971 0  478.9433315621651 149.5761436051346 0  476.0892900516498 143.3058908657982 0  473.063559513628 137.1166601437124 0  469.8684376406648 131.0131514433083 0  466.5063507675389 124.9999996907064 0  462.9798520124137 119.0817711822745 0  459.2916193464549 113.2629601339176 0  455.4444535642773 107.5479852733717 0  451.4412761528674 101.9411864767781 0  447.2851270583545 96.44682145403524 0  442.9791624165781 91.06906256805769 0  438.5266521117469 85.81199360630404 0  433.9309773156125 80.67960671046254 0  429.1956279150353 75.67579933888632 0  424.3241998888952 70.80437133373906 0  419.3203925223282 66.06902197812161 0  414.1880056411937 61.47334723289828 0  408.9309366751728 57.0208369601728 0  403.5531778009394 52.71487236176898 0  398.058812796452 48.55872331295853 0  392.4520140187753 44.55554594490843 0  386.7370391799677 40.70838020528396 0  380.9182281475119 37.02014757560744 0  374.9999996718656 33.49364886444181 0  368.9868479340393 30.13156202237255 0  362.8833392380029 26.93644017348339 0  356.6941085456942 23.91070967062674 0  350.4238558420009 21.0566681953261 0  344.0773426899492 18.37648307566465 0  337.6593885328982 15.87218960140942 0  331.1748670549786 13.54568949032341 0  324.6287025315056 11.39874946165088 0  318.0258660010876 9.432999863235466 0  311.3713716017894 7.649933468721599 0  304.6702726190621 6.050904302234756 0  297.9276578269805 4.637126656823085 0  291.148647441857 3.409674127905504 0  284.3383893425031 2.369478825079682 0  277.502055159398 1.517330660648639 0  270.6448362875833 0.853876741662134 0  263.7719400401456 0.3796208889774277 0  256.8885855592052 0.09492324285704967 0  243.1114143979462 0.09492324403817065 0  236.2280598850882 0.3796208931023841 0  229.3551635938215 0.8538767514891958 0  222.4979446968584 1.517330676558146 0  215.6616104703111 2.369478851036291 0  208.8513523382973 3.409674164591252 0  202.0723419066374 4.637126708856528 0  195.3297270659513 6.050904372824903 0  188.628628074828 7.649933550613184 0  181.9741336377093 9.432999965373938 0  175.3712970793675 11.39874958336037 0  168.8251325057572 13.54568964112298 0  162.340610986655 15.87218978129263 0  155.9226567874317 18.37648328793418 0  149.576143602509 21.05666843898663 0  143.3058908718157 23.91070994551046 0  137.1166601505524 26.93644048291054 0  131.0131514451933 30.13156235831508 0  124.9999996848412 33.49364923584736 0  119.0817711715717 37.0201479941652 0  113.2629601211624 40.70838066187849 0  107.5479852622251 44.55554644345162 0  101.9411864693332 48.55872385260452 0  96.44682143286516 52.71487295812284 0  91.06906254351222 57.02083760363669 0  85.81199358272519 61.4733479087879 0  80.67960667988106 66.06902271253972 0  75.67579930062769 70.80437212218331 0  70.80437129287643 75.67580015310926 0  66.06902193673014 80.67960752263491 0  61.47334718684866 85.81199441168215 0  57.02083692524275 91.0690633672404 0  52.71487232786438 96.44682224262129 0  48.55872328070024 101.941187247437 0  44.55554591578033 107.5479860232332 0  40.7083801742321 113.2629608675606 0  37.02014754791168 119.0817718975441 0  33.49364883372994 125.000000381329 0  30.13156199866361 131.0131521097709 0  26.9364401549829 137.1166607985551 0  23.91070965524918 143.3058914868915 0  21.05666818346614 149.576144185037 0  18.37648306853811 155.9226573275967 0  15.8721895918909 162.3406114925245 0  13.54568948170046 168.8251329701392 0  11.39874945301878 175.3712974960928 0  9.432999857087736 181.9741340206533 0  7.649933466342702 188.6286284076045 0  6.050904301250966 195.3297273853278 0  4.637126656808988 202.0723421730917 0  3.409674127767772 208.8513525589684 0  2.369478824521138 215.6616106615248 0  1.517330660909465 222.4979448382452 0  0.8538767414496533 229.355163714981 0  0.3796208887135322 236.2280599646376 0  0.09492324266324204 243.1114144478261 0  0.0949232442452228 256.8885856095658 0  0.3796208935834784 263.7719401236316 0  0.8538767530323526 270.6448364248016 0  1.517330679476544 277.5020553295092 0  2.369478854618649 284.3383895555228 0  3.409674170191892 291.1486476952655 0  4.6371267162381 297.9276581311522 0  6.050904381420935 304.6702729724059 0  7.649933562385399 311.3713719716595 0  9.43299997979841 318.0258664133013 0  11.3987495994252 324.6287029719946 0  13.54568965885832 331.174867545904 0  15.87218979367188 337.6593890464085 0  18.37648329843151 344.0773432384132 0  21.05666844777872 350.423856417535 0  23.91070995156048 356.6941091410045 0  26.93644048988043 362.8833398632205 0  30.13156235982007 368.9868485575877 0  33.49364924138357 375.0000003247478 0  37.0201480006036 380.9182288389023 0  40.70838066758398 386.7370398875706 0  44.55554644477201 392.4520147396792 0  48.55872386086904 398.0588135419111 0  52.71487295981296 403.5531785693063 0  57.02083760525949 408.9309374584583 0  61.47334790862246 414.1880064170849 0  66.06902271205095 419.320393319588 0  70.80437211216579 424.3242006890749 0  75.67580013809859 429.195628692521 0  80.6796075127923 433.930978054209 0  85.81199439754931 438.5266528008431 0  91.06906334717917 442.9791630582355 0  96.44682221438322 447.2851276501571 0  101.9411872243843 451.441276702356 0  107.5479859945825 455.4444540643537 0  113.2629608446994 459.2916198108319 0  119.0817718768376 462.9798524393601 0  125.0000003647644 466.5063511567065 0  131.0131521012763 469.8684379967393 0  137.1166607840049 473.0635598376539 0  143.3058914748804 476.0892903390826 0  149.5761441732679 478.9433318113714 0  155.9226573130112 481.6235169255377 0  162.3406114779862 484.1278104026658 0  168.8251329570439 486.4543105138039 0  175.3712974805475 488.601250542119 0  181.9741340135204 490.5670001408953 0  188.6286284005059 492.3500665318597 0  195.3297273788229 493.9490956972913 0  202.0723421640089 495.3628733414168 0  208.8513525529672 496.5903258712308 0  215.6616106544547 497.6305211744985 0  222.4979448327038 498.4826693384772 0  229.3551637102845 499.1461232581612 0  236.2280599621369 499.6203791111485 0  243.1114144470173 499.9050767573145 0  155.2373389820306 474.8197567317462 0  25.36256300907667 153.9152755065208 0  432.3709625126712 412.6214396304305 0  6.013151705810699 246.637913163471 0  246.6379131630491 493.986848294322 0  338.6995838441862 22.68244767887072 0  477.3175523131281 338.6995838660569 0  493.9868482700757 246.6379131399102 0  246.6201155078769 6.218451882810491 0  417.6179310263282 72.7156044707053 0  102.2232990934413 445.0100869616822 0  63.66330858966404 92.20354579482142 0  391.3105220491464 50.73522820883105 0  72.79295043967942 418.0702734974704 0  448.290574428537 108.25674339002 0  402.4604651193511 440.7462829841712 0  97.55317348421397 59.11376320116034 0  136.7376477664901 33.58246472647134 0  363.3288394375288 465.6947312928271 0  44.0678766556007 381.0860953771871 0  469.6905266180034 142.3890690100806 0  22.68244791668644 338.6995843487432 0  338.699584349159 477.317552078365 0  173.389488083762 18.6681884918202 0  483.4809734778481 179.7121987795732 0  13.50237455842738 306.4709525540879 0  305.9825168523021 487.24416992
[...]
<PointData  Vectors="f_12"> 
<DataArray  type="Float64"  Name="f_12"  NumberOfComponents="3" format="ascii">4.9654504664285298e-01 8.1265249797777342e-02 4.9237221933131797e-01  4.5883312921869529e-01 1.2751216626299305e-01 2.2819626695091136e-01  5.2483915116559487e-01 9.9839825925627512e-02 6.4621258437097773e-01  5.0316714003360419e-01 5.4380252852879474e-01 2.1476964623592432e-01  5.2539877622604902e-01 1.0041303547452492e-01 6.4892206043305833e-01  5.2590632210891053e-01 1.0094019035409646e-01 6.5136647982026608e-01  5.2639893545181426e-01 1.0145795889497010e-01 6.5372791021777121e-01  5.2684634398858743e-01 1.0193342047152004e-01 6.5586345121384781e-01  5.2726197520366014e-01 1.0237977334716353e-01 6.5783907478076964e-01  5.2764378055505012e-01 1.0279361959184781e-01 6.5964681324784491e-01  5.2799217293399225e-01 1.0317442896838845e-01 6.6129068774579269e-01  5.2831021680621815e-01 1.0352477626996308e-01 6.6278645663702318e-01  5.2859471731914109e-01 1.0384034662905157e-01 6.6412043398990028e-01  5.2884345103664698e-01 1.0411792525458397e-01 6.6528380038623347e-01  5.2903324594966761e-01 1.0433102399725437e-01 6.6616929230991828e-01  5.2923976605754930e-01 1.0456342897248115e-01 6.6713131796952341e-01  5.2934573363395132e-01 1.0468353519776681e-01 6.6762378587701676e-01  5.2945873635007634e-01 1.0481147159418784e-01 6.6814880500576301e-01  5.2952794890984589e-01 1.0489002908781576e-01 6.6847006820568500e-01  5.2956729068846542e-01 1.0493468682061786e-01 6.6865258080818901e-01  5.2958102593576895e-01 1.0495016111483528e-01 6.6871595167851805e-01  5.2953707820790985e-01 1.0490022870248007e-01 6.6851205045140583e-01  5.2945559695456001e-01 1.0480763687158437e-01 6.6813417164579014e-01  5.2936808765667287e-01 1.0470811459355746e-01 6.6772771219194571e-01  5.2924301876840152e-01 1.0456634308943606e-01 6.6714636189762111e-01  5.2906821790050618e-01 1.0436923337080117e-01 6.6633235397704038e-01  5.2883883295218703e-01 1.0411191676013362e-01 6.6526197765638773e-01  5.2860644914573485e-01 1.0385221753371923e-01 6.6417532366425314e-01  5.2834227680685086e-01 1.0355872482213611e-01 6.6293682801265263e-01  5.2801252208899452e-01 1.0319517387427300e-01 6.6138635275059077e-01  5.2767085606950204e-01 1.0282112789679801e-01 6.5977490493781876e-01  5.2728651976629037e-01 1.0240419520968901e-01 6.5795531809460839e-01  5.2686394520971469e-01 1.0194999794154905e-01 6.5594739985926431e-01  5.2642067591196795e-01 1.0147826556832214e-01 6.5383234575976945e-01  5.2591184820958881e-01 1.0094328631686540e-01 6.5139309855121807e-01  5.2537371222019191e-01 1.0038446497683444e-01 6.4880117837573681e-01  5.2482392321795068e-01 9.9820748467245951e-02 6.4613950642939200e-01  5.2421132583982677e-01 9.9202040235154790e-02 6.4315754983083551e-01  5.2353298873450715e-01 9.8528285108872266e-02 6.3983641539194303e-01  5.2283567972631717e-01 9.7847387506256656e-02 6.3640140106118059e-01  5.2212394971350529e-01 9.7164717680506274e-02 6.3287326541445532e-01  5.2134826534247991e-01 9.6435777261370259e-02 6.2900235466209908e-01  5.2050748400750146e-01 9.5662383790787467e-02 6.2477778378639437e-01  5.1963893005721762e-01 9.4882146603847750e-02 6.2038151393605256e-01  5.1871409943684998e-01 9.4072386254500012e-02 6.1566491170622961e-01  5.1774196954226115e-01 9.3243997552803465e-02 6.1066801197018783e-01  5.1672681774020968e-01 9.2404193985059654e-02 6.0540754942738884e-01  5.1567197692392674e-01 9.1558449696865524e-02 5.9989728981312407e-01  5.1453055901547862e-01 9.0676432973752621e-02 5.9388004627156010e-01  5.1334972201242357e-01 8.9796892363304334e-02 5.8760167060674406e-01  5.1212020755471332e-01 8.8919994900239593e-02 5.8100217374782892e-01  5.1083074627573499e-01 8.8039835104576414e-02 5.7401860950522943e-01  5.0949611007036255e-01 8.7174666826242406e-02 5.6671916860632654e-01  5.0807912892839779e-01 8.6306054439634877e-02 5.5889412977788644e-01  5.0661161165803381e-01 8.5461127155253988e-02 5.5070827677221923e-01  5.0509969606189820e-01 8.4649924656816561e-02 5.4218881663686191e-01  5.0351377493426919e-01 8.3864617261987975e-02 5.3315962881941925e-01  5.0187420765271296e-01 8.3125373346975825e-02 5.2372632381898043e-01  5.0018657266175348e-01 8.2438872597836818e-02 5.1391433283017174e-01  4.9847399629676031e-01 8.1814200867713349e-02 5.0386919003642505e-01  4.9470750563226712e-01 8.0795441229994144e-02 4.8134700560795635e-01  4.9279552739894034e-01 8.0444123981913612e-02 4.6972898153595127e-01  4.9084904705670790e-01 8.0215356321705622e-02 4.5776789027229026e-01  4.8881637536235312e-01 8.0118367423761827e-02 4.4513577203752280e-01  4.8675186879976828e-01 8.0190961002187103e-02 4.3214995171594889e-01  4.8465047264793415e-01 8.0440737741652835e-02 4.1878054791827607e-01  4.8252244442865461e-01 8.0917597257058896e-02 4.0506265069586911e-01  4.8036533764522704e-01 8.1640620993548532e-02 3.9097952487067605e-01  4.7820225971232144e-01 8.2649639903340136e-02 3.7665990097240981e-01  4.7604344241724716e-01 8.3985826225581775e-02 3.6215410398932757e-01  4.7386431532186429e-01 8.5729609064559537e-02 3.4727123153675232e-01  4.7172641068871501e-01 8.7911410807961637e-02 3.3239285807466845e-01  4.6962082649350789e-01 9.0623291323917055e-02 3.1742458062435064e-01  4.6755482972051843e-01 9.4003215224515269e-02 3.0234164887093840e-01  4.6555219750613452e-01 9.8130692915425297e-02 2.8727092461948595e-01  4.6369546163139297e-01 1.0328835455409306e-01 2.7254218711410388e-01  4.6202875253518538e-01 1.0874874865614516e-01 2.5888883157805054e-01  4.5964987223061754e-01 1.1761289537673648e-01 2.3948562036784246e-01  4.5728721409401751e-01 1.5139538355510140e-01 2.0642469054850762e-01  4.7206453909767609e-01 3.2119653366573292e-01 1.9933329657138393e-01  5.3947185420353083e-01 6.1377563723588668e-01 3.2482436315860208e-01  5.8868351145273312e-01 4.6868141884240777e-01 6.7443600891894273e-01  5.3465671649688762e-01 1.9510170719927786e-01 6.8538672542518941e-01  4.9003516630298716e-01 1.7855814002874568e-01 4.1952407722540491e-01  5.1181479062695001e-01 2.8116450296712009e-01 4.8517367145268048e-01  5.7456262647104417e-01 3.3914678029308326e-01 7.5281004446928945e-01  6.3347370436903483e-01 5.2616306595045814e-01 6.9999397228379867e-01  6.4891673663211225e-01 6.2695503889010529e-01 5.8858086954064859e-01  6.4829372170029675e-01 6.2655295368614194e-01 5.8932156645519518e-01  6.4662699981443716e-01 6.2660227411020875e-01 5.8863270608015705e-01  6.4542913277053215e-01 6.5928458678745694e-01 5.4503630102371770e-01  6.4660758051022582e-01 6.6630820192783691e-01 5.3310431858687712e-01  6.3772533569964707e-01 5.1366418213620701e-01 7.2193802954342423e-01  5.9142478215817773e-01 2.5743620689890362e-01 8.5578238952732399e-01  5.3535641697264047e-01 1.1786563232337889e-01 7.0751580437957440e-01  4.9787387544617601e-01 8.4008108368355108e-02 5.0715877079691385e-01  4.7456531822296705e-01 8.7103127794590507e-02 3.5569392094583918e-01  4.6161710049055438e-01 1.1726676577094290e-01 2.5521249883786534e-01  4.5739543267308724e-01 1.6783146063426166e-01 1.9934565349573632e-01  4.6051340683418640e-01 2.4208761191332495e-01 1.7363904044682738e-01  4.6937894476207526e-01 3.3341646699810518e-01 1.6837390516942724e-01  4.7568972208733945e-01 3.8904878749162997e-01 1.6794449434730474e-01  4.7790997498993870e-01 4.0728009746035115e-01 1.6963032124872374e-01  4.7337766475904741e-01 3.7138321107982752e-01 1.6829520266612366e-01  4.6550395657220889e-01 2.9385469218673194e-01 1.7192320686090137e-01  4.5913662193687538e-01 2.0144080638904382e-01 1.9060094242820902e-01  4.6080735411322138e-01 1.2851996145383829e-01 2.4417499688655656e-01  4.7626648556091716e-01 9.0623642642115004e-02 3.6587367367182355e-01  5.1306496307815519e-01 9.5360325162312770e-02 5.9564393341792821e-01  5.7341013040304079e-01 1.9236564071487205e-01 8.3301754082351853e-01  6.2628486264124894e-01 4.0433035793611410e-01 8.1270152455011235e-01  6.4074863705214191e-01 6.0280126412927582e-01 6.1347617945837873e-01  6.2294084541207595e-01 7.1560292477201337e-01 4.4522010337869639e-01  5.8343673488575798e-01 7.3866516791999615e-01 3.4050402286521386e-01  5.2520714390997314e-01 6.2709375216830099e-01 2.5209813966431294e-01  4.7885631926763600e-01 4.2304996397733730e-01 1.6600977083918059e-01  5.6815924220944491e-01 6.1488515246604747e-01 4.3664710212523694e-01  5.9206416802177042e-01 4.5325191792558051e-01 7.1015698141296746e-01  5.0722483745258407e-01 1.9560602084630457e-01 5.2776746184931778e-01  4.7278377185790932e-01 1.1588969258089345e-01 3.3720716548934032e-01  4.8187455222297010e-01 1.1587425225423743e-01 3.9954340822598455e-01  5.3709056928463450e-01 2.6067067813752026e-01 6.6270539477585522e-01  5.9483348290160587e-01 6.3554731482414761e-01 5.0168261802544878e-01  5.9535392279903410e-01 7.1126296358158081e-01 4.0218013448289086e-01  5.6518924700912498e-01 4.6705171053626515e-01 6.0237473210643699e-01  5.0750530996699894e-01 3.6619358700918681e-01 3.9213437653807542e-01  5.0695059585926350e-01 4.5362342628294622e-01 3.1214460135549643e-01  5.6192375092559776e-01 5.8082584577414720e-01 4.6307961003053527e-01  5.9583290378892695e-01 6.8463136683385650e-01 4.3988656314017410e-01  5.7106576170761469e-01 7.2286161835694662e-01 3.2335590084404819e-01  5.1279351454630606e-01 5.8925531986298429e-01 2.2576288342782216e-01  4.7439941000046365e-01 3.9185654896209748e-01 1.6052879254928407e-01  4.9414313419390016e-01 5.0156864884860064e-01 1.9754456643763318e-01  5.5331536844572426e-01 6.9789163699958157e-01 2.9785580415651169e-01  6.0167811615726574e-01 7.4519204879322276e-01 3.7134375802276043e-01  6.3019480750803902e-01 7.1315283194259971e-01 4.5744348126978274e-01  6.4328973989505456e-01 6.1893234883722970e-01 5.9646177839088810e-01  6.3594024832484697e-01 4.6692721142102334e-01 7.6085637977997467e-01  6.0302039482589442e-01 2.8328513628755692e-01 8.5904152227080033e-01  5.5316704390178029e-01 1.4296204211905114e-01 7.7658526495771996e-01  5.0948310103469907e-01 8.9072773611904910e-02 5.7595747257244456e-01  4.8286193576065045e-01 8.1943263298015684e-02 4.1362749225044004e-01  4.6888345599090520e-01 9.1688294325963426e-02 3.1753612127396352e-01  4.6240964295911602e-01 1.0516288386606473e-01 2.6800421622147674e-01  4.6002819065105427e-01 1.1480500977252603e-01 2.4714909442973196e-01  4.5995194570705672e-01 1.1538547883254184e-01 2.4632679974692134e-01  4.6199762420460228e-01 1.0667649530469504e-01 2.6446161566302845e-01  4.6697320731635150e-01 9.3571805237441921e-02 3.0397737403641956e-01  4.7698300498813301e-01 8.3853190048747556e-02 3.7396850707788021e-01  4.9421840080820828e-01 7.9767689467839631e-02 4.8673119737459908e-01  5.2247626580245132e-01 9.8598670453661025e-02 6.4561114093949989e-01  5.6162032527968764e-01 1.5998467711595621e-01 8.0555817352290049e-01  6.0434539137566701e-01 3.0084147740699707e-01 8.5392034991358134e-01  6.3185742503521869e-01 5.0540884352038096e-01 7.1909400534112411e-01  6.3053672740087230e-01 6.9173445527162747e-01 4.8644914424109154e-01  6.1921516235666241e-01 7.6519497075580167e-01 3.6910564684319891e-01  6.2528719496829732e-01 7.3330373336476951e-01 4.2333014121587476e-01  6.3502450146736744e-01 6.8959464674560222e-01 4.9486708045810279e-01  6.3723599363345651e-01 6.9016852602424983e-01 4.9617584889315969e-01  6.3030641533514475e-01 7.0871420098378402e-01 4.6378939407963021e-01  6.1258381256449734e-01 7.1545461008347433e-01 4.3076915245193631e-01  5.7530570484795496e-01 6.4049651355253745e-01 4.4358796192939504e-01  5.1475592549059179e-01 4.0437731932521115e-01 4.0744896499532490e-01  4.9768816562166407e-01 1.7511175277422264e-01 4.7431574278052629e-01  5.5844022881168021e-01 2.4887110572736776e-01 7.6369776868285510e-01  5.9611605056571537e-01 5.6001948067538831e-01 5.8948216272724641e-01  5.3264570749012585e-01 6.2231016113693860e-01 2.8620643094339715e-01  4.6993557279035802e-01 3.3484402792053980e-01 1.8035299129283675e-01  4.5678051940177561e-01 1.8418498098150263e-01 1.8287821027040255e-01  4.5683515233777294e-01 1.5501036633193946e-01 2.0066722597318115e-01  4.5756367763709127e-01 1.4384624390336626e-01 2.1093085874053560e-01  4.5811098049236065e-01 1.3533746525270837e-01 2.1923959887455613e-01  4.5970292205004387e-01 1.2081374810167955e-01 2.3743871317843238e-01  4.6067946114547864e-01 1.1503228963614415e-01 2.4684650116729531e-01  4.6175657672681225e-01 1.0999585517811512e-01 2.5648235052941931e-01  4.6290631832902374e-01 1.0563137120332385e-01 2.6621599708756832e-01  4.6411902818360462e-01 1.0183367170143255e-01 2.7604562780841752e-01  4.6538233590928341e-01 9.8525191609588891e-02 2.8593640346842553e-01  4.6668780593725223e-01 9.5641836820826609e-02 2.9586934131520254e-01  4.6802503343685353e-01 9.3130671583962030e-02 3.0580632124068435e-01  4.6938917408382530e-01 9.0944456558016001e-02 3.1574005412126638e-01  4.7077332045082154e-01 8.9044638066094112e-02 3.2564581972304935e-01  4.7217370492902111e-01 8.7401297464893696e-02 3.3551242850748136e-01  4.7357772861181102e-01 8.5985711186412850e-02 3.4527420326864477e-01  4.7500197482474965e-01 8.4761585599242059e-02 3.5505321146041902e-01  4.7643183476667578e-01 8.3717444855122322e-02 3.6475981717393968e-01  4.7785281101966909e-01 8.2842713385369235e-02 3.7430551589409783e-01  4.7929591242514236e-01 8.2104203888958879e-02 3.8390307481207814e-01  4.8073365434880849e-01 8.1501884714696271e-02 3.9337538544113565e-01  4.8214656004731854e-01 8.1027721282747739e-02 4.0260174245185593e-01  4.8356596410688113e-01 8.0664137786779735e-02 4.1178704481607370e-01  4.8497849888444472e-01 8.0396912650020066e-02 4.2085526123406791e-01  4.8638553967594561e-01 8.0224655386692434e-02 4.2981221499973221e-01  4.8778241852088239e-01 8.0138480608257331e-02 4.3863268947128481e-01  4.8917342606135067e-01 8.0130741706805078e-02 4.4734661651009783e-01  4.9055902338877061e-01 8.0197848183216972e-02 4.5595704871733916e-01  4.9192086120394418e-01 8.0331767244069902e-02 4.6435381788092522e-01  4.9327582193395808e-01 8.0529872240297992e-02 4.7264209915262190e-01  4.9462512974181838e-01 8.0787277866947033e-02 4.8083223187264307e-01  4.9594319948749777e-01 8.1095935066756081e-02 4.8876975207364337e-01  4.9725965607531747e-01 8.1458758599688708e-02 4.9663550895703956e-01  4.9856058980057638e-01 8.1868012596911233e-02 5.0434775626792916e-01  4.9984092910016081e-01 8.2319708944275344e-02 5.1187836313879587e-01  5.0110439991636835e-01 8.2811492410720278e-02 5.1925146811875700e-01  5.0234921657470233e-01 8.3339949489307716e-02 5.2645852261546677e-01  5.0357926704584144e-01 8.3904298850705730e-02 5.3352376459093687e-01  5.0479946642719009e-01 8.4504554397889092e-02 5.4047674281390889e-01  5.0598089776416655e-01 8.5123528231063020e-02 5.4715580527300789e-01  5.0713688630016041e-01 8.5765211435392050e-02 5.5363940982479454e-01  5.0829710866998479e-01 8.6444223913665033e-02 5.6009517160824529e-01  5.0942021565299966e-01 8.7134604827036027e-02 5.6629517192796608e-01  5.1050923536032167e-01 8.7835343681506209e-02 5.7225977489289026e-01  5.1158257748923852e-01 8.8555494529223899e-02 5.7809275206012745e-01  5.1262795327572874e-01 8.9284779649464074e-02 5.8372971200883861e-01  5.1365564514472928e-01 9.0028981628937813e-02 5.8922854069356767e-01  5.1464065667344538e-01 9.0766903920837722e-02 5.9445863062208348e-01  5.1560944497195949e-01 9.1516867632607315e-02 5.9956398287793300e-01  5.1654391496029084e-01 9.2262159988843531e-02 6.0445226309638866e-01  5.1745552968198794e-01 9.3010526036416491e-02 6.0918503335364471e-01  5.1834688439973930e-01 9.3762370505580075e-02 6.1377895864027043e-01  5.1919144403995199e-01 9.4493251790176910e-02 6.1810164779230736e-01  5.2000161614479390e-01 9.5211099534589019e-02 6.2221913546013230e-01  5.2079785685500368e-01 9.5932450891887858e-02 6.2623867215482587e-01  5.2155220570511096e-01 9.6630683263273912e-02 6.3002121822205748e-01  5.2226780824242280e-01 9.7306259415144439e-02 6.3358712320664246e-01  5.2295692013575612e-01 9.7969050402787930e-02 6.3699902543229048e-01  5.2361693204738624e-01 9.8614799899558375e-02 6.4024808765619301e-01  5.2423533117700927e-01 9.9230028830070510e-02 6.4327401536284601e-01  5.1297120644781857e-01 8.9531417234703106e-02 5.8557102002780048e-01  6.3438495488814550e-01 5.9334426269868112e-01 6.2131054766036409e-01  5.2591193577087314e-01 1.0094402162028268e-01 6.5139488152680092e-01  4.5839581637416665e-01 1.3202627036161735e-01 2.2289298623806328e-01  5.2432250503055056e-01 9.9318045855537176e-02 6.4370017835284765e-01  5.0219991155913046e-01 5.2609263549193808e-01 2.1827345447618535e-01  5.1590456746623414e-01 9.1745219332294028e-02 6.0111549625636218e-01  4.9536844615699688e-01 8.0941820122911429e-02 4.8534084681787282e-01  5.5299086085194937e-01 6.7186502872926290e-01 3.1603385035135695e-01  6.3801755832491769e-01 5.1987760161151664e-01 7.1180905248982107e-01  5.0277740863735998e-01 8.3533091865126752e-02 5.2892362787462310e-01  4.6359590293076125e-01 1.4942537396564881e-01 2.4976689063879282e-01  5.3414735737401287e-01 1.2336627052820698e-01 7.0371962848412972e-01  4.9516637865804297e-01 8.0908883639326398e-02 4.8409858315613374e-01  5.6108268874212197e-01 2.7395204198077311e-01 7.5850054456882954e-01  5.2826185087110133e-01 1.0347079327647879e-01 6.6255987348134737e-01  5.0827524222969911e-01 9.9713191384897010e-02 5.6314135790809061e-01  5.3403624127775262e-01 6.4630919676348508e-01 2.7326447020555539e-01  5.2931497146963646e-01 1.0464830568170731e-01 6.6748308362187381e-01  4.8562150000186910e-01 8.0310048821906274e-02 4.2495578152654562e-01  4.6267403641415739e-01 1.0649965676706515e-01 2.6425755672316448e-01  4.7556498807706915e-01 8.4328502189728247e-02 3.5888820954121542e-01  5.2918862376233466e-01 1.0450652740455034e-01 6.6689382281475429e-01  5.3336855811307737e-01 5.3333616639566461e-01 3.8575005658698391e-01  4.7448316587554912e-01 8.5195847811851105e-02 3.5152000447921578e-01  4.6852713605982643e-01 9.2298231486876339e-02 3.0947674132969516e-01  5.2818694708473546e-01 1.0338950913342838e-01 6.6220787857302388e-01  5.1857631495914480e-01 9.3959434191235855e-02 6.1495785007549664e-01  5.1685270631328284e-01 1.6859310343222142e-01 6.0046176028858922e-01  5.2326306123732835e-01 1.1128501456884315e-01 6.4670328953186962e-01  5.0848866733172893e-01 8.6553164401441826e-02 5.6116523099183291e-01  5.2237389221843555e-01 9.7404706682115802e-02 6.3411457572719643e-01  5.8157344132157185e-01 4.6981144962926197e-01 6.6291346125744977e-01  4.8317878268927472e-01 8.0753995034714157e-02 4.0930736334226980e-01  4.6338657594955845e-01 1.0405984630749364e-01 2.7014380551874917e-01  5.2683878973193576e-01 1.0192627688178349e-01 6.5582780662160389e-01  4.6152779671796101e-01 1.8283671829636594e-01 2.1581620900467599e-01  5.9720529215037077e-01 2.9948638691585577e-01 8.4438224553138153e-01  5.2172064139074992e-01 9.6789305554833241e-02 6.3086318910805939e-01  5.0864330633162425e-01 8.6653163978653094e-02 5.6201389996238138e-01  4.6418997946189183e-01 2.6699828917566742e-01 1.8208014353423074e-01  6.1435963566332807e-01 7.1700543633174796e-01 4.3084451898376830e-01  5.0257403774694920e-01 8.3435833987011127e-02 5.2776314492165277e-01  5.2882798177763846e-01 1.0410077862916139e-01 6.6521258764895763e-01  5.1239830327883362e-01 8.9116662187293055e-02 5.8250163217636886e-01  4.7989637588734241e-01 1.5134811442327015e-01 3.6452235830074070e-01  4.6472196903698898e-01 2.2671660486495973e-01 2.1063676469893086e-01  4.8945687683760319e-01 8.0135178097451729e-02 4.4913205833865100e-01  6.0369270777076300e-01 3.8278452865248563e-01 7.9458957952802223e-01  5.1589933572307545e-01 9.1747099453314607e-02 6.0108360707321074e-01  5.2419782105586110e-01 9.9189191281402966e-02 6.4309409333341117e-01  4.9112433010036288e-01 8.0246956659335594e-02 4.5945016369308539e-01  6.3307863167734002e-01 4.7567742664560791e-01 7.5065837642490962e-01  4.8138466951143161e-01 8.1271332133072971e-02 3.9763540766749694e-01  6.0407167341488877e-01 6.4433004118305692e-01 5.0695639490880595e-01  5.1979988285279721e-01 9.5026402697089979e-02 6.2119986590344189e-01  4.9902646908