<?xml version="1.0"?>
<VTKFile type="UnstructuredGrid"  version="0.1"  >
<UnstructuredGrid>
<Piece  NumberOfPoints="4940" NumberOfCells="9650">
<Points>
<DataArray  type="Float64"  NumberOfComponents="3"  format="ascii">500 250 0  0 250 0  250 500 0  250 0 0  256.8885856082646 499.9050767557906 0  263.7719401218049 499.6203791065173 0  270.6448364229772 499.1461232471188 0  277.5020553257866 498.4826693209355 0  284.3383895508592 497.6305211460281 0  291.1486476865662 496.5903258312597 0  297.9276581259182 495.3628732847843 0  304.6702729675493 493.9490956196674 0  311.3713719748657 492.3500664368026 0  318.0258664141369 490.5670000199653 0  324.6287029687753 488.6012504015818 0  331.1748675330201 486.4543103455647 0  337.6593890460416 484.1278102064655 0  344.0773432429536 481.6235166997244 0  350.4238564271474 478.9433315480048 0  356.694109139292 476.0892900492477 0  362.88333985546 473.0635595140469 0  368.9868485575419 469.8684376402048 0  375.0000003153078 466.5063507640667 0  380.9182288257928 462.9798520074548 0  386.7370398729688 459.2916193419558 0  392.4520147244077 455.444453565817 0  398.0588135356345 451.4412761437442 0  403.5531785622926 447.285127045646 0  408.9309374414144 442.9791624087773 0  414.1880064015299 438.5266521049243 0  419.3203932989752 433.9309773069245 0  424.324200661095 429.1956279150535 0  429.1956286596235 424.3241998957182 0  433.9309780058756 419.3203925397119 0  438.5266527445345 414.1880056671062 0  442.9791630130591 408.9309367076756 0  447.2851276060475 403.5531778422888 0  451.4412766621026 398.0588128303826 0  455.4444540361634 392.4520140460735 0  459.2916197786263 386.7370392045948 0  462.9798524073514 380.9182281752347 0  466.5063511234856 374.9999996927758 0  469.8684379657123 368.9868479560565 0  473.0635598144817 362.8833392617846 0  476.0892903190255 356.6941085676214 0  478.9433317963513 350.4238558609745 0  481.6235169154735 344.0773427117675 0  484.12781039012 337.6593885555221 0  486.4543105028062 331.1748670749914 0  488.601250531677 324.6287025528375 0  490.5670001317469 318.0258660188321 0  492.3500665291326 311.3713716102628 0  493.949095695951 304.6702726271575 0  495.3628733416623 297.9276578347343 0  496.5903258712341 291.1486474470129 0  497.6305211749058 284.3383893426084 0  498.4826693388848 277.502055163614 0  499.1461232580606 270.6448362909296 0  499.6203791109319 263.7719400417897 0  499.9050767571306 256.8885855596534 0  499.9050767559877 243.1114143988867 0  499.6203791069493 236.2280598860241 0  499.1461232485393 229.3551635941651 0  498.4826693235677 222.4979446979962 0  497.6305211491849 215.6616104719064 0  496.5903258357701 208.8513523404629 0  495.3628732906988 202.0723419043604 0  493.9490956264813 195.3297270628552 0  492.3500664487791 188.6286280724281 0  490.5670000344809 181.9741336371959 0  488.6012504175981 175.3712970824318 0  486.4543103623226 168.8251325157939 0  484.1278102222298 162.3406109960628 0  481.6235167152198 155.9226567951971 0  478.9433315621651 149.5761436051346 0  476.0892900516498 143.3058908657982 0  473.063559513628 137.1166601437124 0  469.8684376406648 131.0131514433083 0  466.5063507675389 124.9999996907064 0  462.9798520124137 119.0817711822745 0  459.2916193464549 113.2629601339176 0  455.4444535642773 107.5479852733717 0  451.4412761528674 101.9411864767781 0  447.2851270583545 96.44682145403524 0  442.9791624165781 91.06906256805769 0  438.5266521117469 85.81199360630404 0  433.9309773156125 80.67960671046254 0  429.1956279150353 75.67579933888632 0  424.3241998888952 70.80437133373906 0  419.3203925223282 66.06902197812161 0  414.1880056411937 61.47334723289828 0  408.9309366751728 57.0208369601728 0  403.5531778009394 52.71487236176898 0  398.058812796452 48.55872331295853 0  392.4520140187753 44.55554594490843 0  386.7370391799677 40.70838020528396 0  380.9182281475119 37.02014757560744 0  374.9999996718656 33.49364886444181 0  368.9868479340393 30.13156202237255 0  362.8833392380029 26.93644017348339 0  356.6941085456942 23.91070967062674 0  350.4238558420009 21.0566681953261 0  344.0773426899492 18.37648307566465 0  337.6593885328982 15.87218960140942 0  331.1748670549786 13.54568949032341 0  324.6287025315056 11.39874946165088 0  318.0258660010876 9.432999863235466 0  311.3713716017894 7.649933468721599 0  304.6702726190621 6.050904302234756 0  297.9276578269805 4.637126656823085 0  291.148647441857 3.409674127905504 0  284.3383893425031 2.369478825079682 0  277.502055159398 1.517330660648639 0  270.6448362875833 0.853876741662134 0  263.7719400401456 0.3796208889774277 0  256.8885855592052 0.09492324285704967 0  243.1114143979462 0.09492324403817065 0  236.2280598850882 0.3796208931023841 0  229.3551635938215 0.8538767514891958 0  222.4979446968584 1.517330676558146 0  215.6616104703111 2.369478851036291 0  208.8513523382973 3.409674164591252 0  202.0723419066374 4.637126708856528 0  195.3297270659513 6.050904372824903 0  188.628628074828 7.649933550613184 0  181.9741336377093 9.432999965373938 0  175.3712970793675 11.39874958336037 0  168.8251325057572 13.54568964112298 0  162.340610986655 15.87218978129263 0  155.9226567874317 18.37648328793418 0  149.576143602509 21.05666843898663 0  143.3058908718157 23.91070994551046 0  137.1166601505524 26.93644048291054 0  131.0131514451933 30.13156235831508 0  124.9999996848412 33.49364923584736 0  119.0817711715717 37.0201479941652 0  113.2629601211624 40.70838066187849 0  107.5479852622251 44.55554644345162 0  101.9411864693332 48.55872385260452 0  96.44682143286516 52.71487295812284 0  91.06906254351222 57.02083760363669 0  85.81199358272519 61.4733479087879 0  80.67960667988106 66.06902271253972 0  75.67579930062769 70.80437212218331 0  70.80437129287643 75.67580015310926 0  66.06902193673014 80.67960752263491 0  61.47334718684866 85.81199441168215 0  57.02083692524275 91.0690633672404 0  52.71487232786438 96.44682224262129 0  48.55872328070024 101.941187247437 0  44.55554591578033 107.5479860232332 0  40.7083801742321 113.2629608675606 0  37.02014754791168 119.0817718975441 0  33.49364883372994 125.000000381329 0  30.13156199866361 131.0131521097709 0  26.9364401549829 137.1166607985551 0  23.91070965524918 143.3058914868915 0  21.05666818346614 149.576144185037 0  18.37648306853811 155.9226573275967 0  15.8721895918909 162.3406114925245 0  13.54568948170046 168.8251329701392 0  11.39874945301878 175.3712974960928 0  9.432999857087736 181.9741340206533 0  7.649933466342702 188.6286284076045 0  6.050904301250966 195.3297273853278 0  4.637126656808988 202.0723421730917 0  3.409674127767772 208.8513525589684 0  2.369478824521138 215.6616106615248 0  1.517330660909465 222.4979448382452 0  0.8538767414496533 229.355163714981 0  0.3796208887135322 236.2280599646376 0  0.09492324266324204 243.1114144478261 0  0.0949232442452228 256.8885856095658 0  0.3796208935834784 263.7719401236316 0  0.8538767530323526 270.6448364248016 0  1.517330679476544 277.5020553295092 0  2.369478854618649 284.3383895555228 0  3.409674170191892 291.1486476952655 0  4.6371267162381 297.9276581311522 0  6.050904381420935 304.6702729724059 0  7.649933562385399 311.3713719716595 0  9.43299997979841 318.0258664133013 0  11.3987495994252 324.6287029719946 0  13.54568965885832 331.174867545904 0  15.87218979367188 337.6593890464085 0  18.37648329843151 344.0773432384132 0  21.05666844777872 350.423856417535 0  23.91070995156048 356.6941091410045 0  26.93644048988043 362.8833398632205 0  30.13156235982007 368.9868485575877 0  33.49364924138357 375.0000003247478 0  37.0201480006036 380.9182288389023 0  40.70838066758398 386.7370398875706 0  44.55554644477201 392.4520147396792 0  48.55872386086904 398.0588135419111 0  52.71487295981296 403.5531785693063 0  57.02083760525949 408.9309374584583 0  61.47334790862246 414.1880064170849 0  66.06902271205095 419.320393319588 0  70.80437211216579 424.3242006890749 0  75.67580013809859 429.195628692521 0  80.6796075127923 433.930978054209 0  85.81199439754931 438.5266528008431 0  91.06906334717917 442.9791630582355 0  96.44682221438322 447.2851276501571 0  101.9411872243843 451.441276702356 0  107.5479859945825 455.4444540643537 0  113.2629608446994 459.2916198108319 0  119.0817718768376 462.9798524393601 0  125.0000003647644 466.5063511567065 0  131.0131521012763 469.8684379967393 0  137.1166607840049 473.0635598376539 0  143.3058914748804 476.0892903390826 0  149.5761441732679 478.9433318113714 0  155.9226573130112 481.6235169255377 0  162.3406114779862 484.1278104026658 0  168.8251329570439 486.4543105138039 0  175.3712974805475 488.601250542119 0  181.9741340135204 490.5670001408953 0  188.6286284005059 492.3500665318597 0  195.3297273788229 493.9490956972913 0  202.0723421640089 495.3628733414168 0  208.8513525529672 496.5903258712308 0  215.6616106544547 497.6305211744985 0  222.4979448327038 498.4826693384772 0  229.3551637102845 499.1461232581612 0  236.2280599621369 499.6203791111485 0  243.1114144470173 499.9050767573145 0  155.2373389820306 474.8197567317462 0  25.36256300907667 153.9152755065208 0  432.3709625126712 412.6214396304305 0  6.013151705810699 246.637913163471 0  246.6379131630491 493.986848294322 0  338.6995838441862 22.68244767887072 0  477.3175523131281 338.6995838660569 0  493.9868482700757 246.6379131399102 0  246.6201155078769 6.218451882810491 0  417.6179310263282 72.7156044707053 0  102.2232990934413 445.0100869616822 0  63.66330858966404 92.20354579482142 0  391.3105220491464 50.73522820883105 0  72.79295043967942 418.0702734974704 0  448.290574428537 108.25674339002 0  402.4604651193511 440.7462829841712 0  97.55317348421397 59.11376320116034 0  136.7376477664901 33.58246472647134 0  363.3288394375288 465.6947312928271 0  44.0678766556007 381.0860953771871 0  469.6905266180034 142.3890690100806 0  22.68244791668644 338.6995843487432 0  338.699584349159 477.317552078365 0  173.389488083762 18.6681884918202 0  483.4809734778481 179.7121987795732 0  13.50237455842738 306.4709525540879 0  305.9825168523021 487.24416992
[...]
<PointData  Vectors="f_12"> 
<DataArray  type="Float64"  Name="f_12"  NumberOfComponents="3" format="ascii">4.5743190675307482e-01 1.8874858431897296e-01 1.8411962993487169e-01  4.8812444601951982e-01 4.8249574147718105e-01 1.6918632741778170e-01  4.5823991616054199e-01 1.3343189786312706e-01 2.2108719444585098e-01  5.8649748399642676e-01 4.0212929611485126e-01 7.3085325096603415e-01  4.5830982943033133e-01 1.3262625553347152e-01 2.2198140625970614e-01  4.5837470522597434e-01 1.3190708349737529e-01 2.2279501172558491e-01  4.5843930699909408e-01 1.3121255231770063e-01 2.2359298539889258e-01  4.5849905611210900e-01 1.3058918323627791e-01 2.2432023486989239e-01  4.5855573080547085e-01 1.3001442362619212e-01 2.2500069750465973e-01  4.5860865602556744e-01 1.2949013007815405e-01 2.2562911604096181e-01  4.5865776778652212e-01 1.2901431890962947e-01 2.2620620732842103e-01  4.5870336855031574e-01 1.2858126959306027e-01 2.2673711881613301e-01  4.5874477794359897e-01 1.2819490662475289e-01 2.2721535142704755e-01  4.5878154488305645e-01 1.2785752153016061e-01 2.2763677831073789e-01  4.5880977492417235e-01 1.2760303201906362e-01 2.2795775939063029e-01  4.5884140020957642e-01 1.2731817551609434e-01 2.2831730953710522e-01  4.5885761060122271e-01 1.2717595517306426e-01 2.2849941719805883e-01  4.5887557003689045e-01 1.2701685621892006e-01 2.2870211580818306e-01  4.5888708717636856e-01 1.2691577673846710e-01 2.2883158053619321e-01  4.5889432484848908e-01 1.2685200869586696e-01 2.2891313596610255e-01  4.5889788575762275e-01 1.2681914362425462e-01 2.2895419691293575e-01  4.5889278385399163e-01 1.2686377480644159e-01 2.2889704502811997e-01  4.5888219718385093e-01 1.2695660186219315e-01 2.2877822014722554e-01  4.5887113309570332e-01 1.2705154544319708e-01 2.2865527881364486e-01  4.5885463756441713e-01 1.2719499399309236e-01 2.2847085864913050e-01  4.5883093682629228e-01 1.2740508873139558e-01 2.2820352845125522e-01  4.5879926291493589e-01 1.2768993912993745e-01 2.2784390671148896e-01  4.5876789429509623e-01 1.2797310654967564e-01 2.2748722634568797e-01  4.5873242313301782e-01 1.2829776205747395e-01 2.2708137983042226e-01  4.5868774790660932e-01 1.2871579111877041e-01 2.2656497272062381e-01  4.5864237131889402e-01 1.2914679249182898e-01 2.2603688649815229e-01  4.5859180073290706e-01 1.2963836663927161e-01 2.2544197226961921e-01  4.5853687004688304e-01 1.3018489669491212e-01 2.2478865352412916e-01  4.5848033260448429e-01 1.3076016218335165e-01 2.2410905299372683e-01  4.5841606505221250e-01 1.3143570031395216e-01 2.2332419329726408e-01  4.5834960232251287e-01 1.3215650912480592e-01 2.2249998004303959e-01  4.5828342014654710e-01 1.3289513160814556e-01 2.2166749897566324e-01  4.5821109068275956e-01 1.3373588854501856e-01 2.2073857777585684e-01  4.5813295961018446e-01 1.3468723923664358e-01 2.1971052480310407e-01  4.5805530050837312e-01 1.3567459507835661e-01 2.1866499100141282e-01  4.5797891374250216e-01 1.3669091993282514e-01 2.1761094559379751e-01  4.5789850598448301e-01 1.3782415234408316e-01 2.1646519963079797e-01  4.5781450714407423e-01 1.3908127219872948e-01 2.1522639773131666e-01  4.5773203765427189e-01 1.4040045271272739e-01 2.1396165116276397e-01  4.5764885059361338e-01 1.4183752607464772e-01 2.1262493436847765e-01  4.5756637553501789e-01 1.4338203429149127e-01 2.1123106431947736e-01  4.5748609579661759e-01 1.4503136601382610e-01 2.0979060044942546e-01  4.5740919133018210e-01 1.4678355384961669e-01 2.0831179293147792e-01  4.5733358552051723e-01 1.4874437754515887e-01 2.0672090206767454e-01  4.5726361596810500e-01 1.5082528931280867e-01 2.0509530607241180e-01  4.5720083161504166e-01 1.5305717746076306e-01 2.0342641817926832e-01  4.5714516640789671e-01 1.5547297673362545e-01 2.0169463706666643e-01  4.5710001305941950e-01 1.5805557495222508e-01 1.9993008328710221e-01  4.5706608740028470e-01 1.6090576581556604e-01 1.9807848431091027e-01  4.5704676381819909e-01 1.6396893758773615e-01 1.9619119555145978e-01  4.5704456291234047e-01 1.6724713653089637e-01 1.9428170719194279e-01  4.5706291410577060e-01 1.7084174480645842e-01 1.9231088987762668e-01  4.5710540782963255e-01 1.7472689713587727e-01 1.9031472232047714e-01  4.5717347424279220e-01 1.7891504521373913e-01 1.8829232307050706e-01  4.5726775799350866e-01 1.8331759335682171e-01 1.8629937818929138e-01  4.5760870007062837e-01 1.9408098908982868e-01 1.8206072093222883e-01  4.5784528654424689e-01 1.9999918605680572e-01 1.8000816561073357e-01  4.5813814550872117e-01 2.0639524054317288e-01 1.7799767168892902e-01  4.5850564494797419e-01 2.1356838613935886e-01 1.7595461295952292e-01  4.5895208313468622e-01 2.2138176778543095e-01 1.7398105328376470e-01  4.5948679082916927e-01 2.2994393319814654e-01 1.7205541591728993e-01  4.6012912032902858e-01 2.3934300736323755e-01 1.7023211779661379e-01  4.6089329245121219e-01 2.4970415406015053e-01 1.6850318480311227e-01  4.6179284190210362e-01 2.6105813008171069e-01 1.6691337538561743e-01  4.6284552738728491e-01 2.7349237710512486e-01 1.6549275772288041e-01  4.6409908939658889e-01 2.8740093116037213e-01 1.6424452073093501e-01  4.6554790615783581e-01 3.0255821910128355e-01 1.6324681935734880e-01  4.6723598068634642e-01 3.1926662213033830e-01 1.6251212571906959e-01  4.6921926235642153e-01 3.3784588075392197e-01 1.6210605302672310e-01  4.7152762741260096e-01 3.5834459270330410e-01 1.6207559232203733e-01  4.7420420503129251e-01 3.8085261103782114e-01 1.6250872174945155e-01  4.7730430857229361e-01 4.0553710059576598e-01 1.6345820242523248e-01  4.8089934077711816e-01 4.3253660170685498e-01 1.6504530987935545e-01  4.8507691889803284e-01 4.6200584343247669e-01 1.6738847808668267e-01  4.8991114804904590e-01 4.9384846824267187e-01 1.7060106811821968e-01  4.9541534803720427e-01 5.2744862759175049e-01 1.7477930875564240e-01  5.0191598260634795e-01 5.6361529755975948e-01 1.8036174691760506e-01  5.0940591972838767e-01 6.0094512229359753e-01 1.8750263296966804e-01  5.1802774850634425e-01 6.3862797013540429e-01 1.9656775281810504e-01  5.2787758867058043e-01 6.7518002626995888e-01 2.0788617692461225e-01  5.3974173102863177e-01 7.1135964170559651e-01 2.2226007340729667e-01  5.5927843783561038e-01 7.5243109499203098e-01 2.5147626872498491e-01  5.9517818565882163e-01 7.6063255286205889e-01 3.3451442354904076e-01  6.2983112045449530e-01 6.4635612063087333e-01 5.4797983015756091e-01  6.0484549139003740e-01 3.4107488691613852e-01 8.3993847174060576e-01  5.1984739041369010e-01 1.2157518065215372e-01 6.3635301609940187e-01  4.7189994989278583e-01 1.3492633869901513e-01 3.1713108501119064e-01  4.6905874305326323e-01 2.7379041245265240e-01 2.1167429509109495e-01  4.9205246948264447e-01 4.8346958097418041e-01 1.9747460786931456e-01  5.2255884986079459e-01 6.4484802723951373e-01 2.1771851957870078e-01  5.5341243734872814e-01 7.3378143629481007e-01 2.5472178506789195e-01  5.8521564635688739e-01 7.6248663097207503e-01 3.1257357780885364e-01  6.1470954687286261e-01 7.4235209324026585e-01 3.9654783865646570e-01  6.3575701957914355e-01 6.9311256109976727e-01 4.9142594714730597e-01  6.4547524129029288e-01 6.2793340161979971e-01 5.8621265252552646e-01  6.4522798391856928e-01 5.5315682106485720e-01 6.7386152772160823e-01  6.4270832666325950e-01 5.0880161602427199e-01 7.1916095109661093e-01  6.4095909626721725e-01 4.9028060185559902e-01 7.3960933154052522e-01  6.4266783212378853e-01 5.1295053053433581e-01 7.1856119298035592e-01  6.4386610483495699e-01 5.6792966425182712e-01 6.5763460285867159e-01  6.3822631390029638e-01 6.4355826804085203e-01 5.5936144417514100e-01  6.1670476509987748e-01 7.1348468395096543e-01 4.3857409668187186e-01  5.7409692701681558e-01 7.3437272722693969e-01 3.2025171296939176e-01  5.1829854471708292e-01 6.1319436678667505e-01 2.3213081194833282e-01  4.7461018772414248e-01 3.4696622488364098e-01 1.9353936869793265e-01  4.6038360928747585e-01 1.5723103771086316e-01 2.2345799057899421e-01  4.7251355875194834e-01 9.3179549826580624e-02 3.3718505920714315e-01  4.9602218337174292e-01 8.0586613859907646e-02 4.9251262071865809e-01  5.1387314201724621e-01 8.9628864614721138e-02 5.9448913002047454e-01  5.2031272217491897e-01 1.0062527154920686e-01 6.3076038558180136e-01  5.4242055488742846e-01 1.5823819993513100e-01 7.3631615604716127e-01  5.5579734099040812e-01 5.4620990874431330e-01 4.5601142559465796e-01  4.8319598976653438e-01 4.0333564695452878e-01 2.1977670537680577e-01  4.6285878668552227e-01 1.2043997023858243e-01 2.5996553637736380e-01  4.7406047236557924e-01 8.4068106307501597e-02 3.5093916965264882e-01  4.7962939802398113e-01 8.1273149798589267e-02 3.8646523048530845e-01  4.8056628313124305e-01 8.1607080773061849e-02 3.9228637348922912e-01  4.8100777146226559e-01 8.1245006145125087e-02 3.9532235618727146e-01  4.8092580414943226e-01 8.1304535245031326e-02 3.9476553540726345e-01  4.8017742296772581e-01 8.1599804052938429e-02 3.8985130613222124e-01  4.7927315784031993e-01 8.2027555947170455e-02 3.8377224181074737e-01  4.7552351768557577e-01 8.2413032020670934e-02 3.6056940949395461e-01  4.6567005764928310e-01 9.9891366862657260e-02 2.8861333555466984e-01  4.6361525616219862e-01 2.0410218571110342e-01 2.2062675912671387e-01  5.1355813581306509e-01 5.2926678153967488e-01 2.8242137850333482e-01  5.8509199602627804e-01 5.5675588671027021e-01 5.5994320367385331e-01  5.7329702417834050e-01 2.7142698343893873e-01 7.9903272049438034e-01  5.2319913917295147e-01 1.1522271080669509e-01 6.5197651658255984e-01  5.0468658608786066e-01 8.6862270178976658e-02 5.4573875486957402e-01  4.9882376164829129e-01 8.1003732194576572e-02 5.0948554200515406e-01  4.8776525135233678e-01 7.8378864216369803e-02 4.4195713383559804e-01  4.7181428787227581e-01 8.8468192273938664e-02 3.3534313665779331e-01  4.6045946262303189e-01 1.3239054029049338e-01 2.3865400385977564e-01  4.6298779402483270e-01 2.4234268013975810e-01 1.8934468435765689e-01  4.8490615598222653e-01 4.4275447493083669e-01 1.8815646847548642e-01  5.2255191416471491e-01 6.4323819543220495e-01 2.2310329076268118e-01  5.6166447597395519e-01 7.3817051515593524e-01 2.7770783440116803e-01  5.9134279231222864e-01 7.5557197087408245e-01 3.3479298936523577e-01  6.0910131223574815e-01 7.4749042700939394e-01 3.7940276216155649e-01  6.1719768853331769e-01 7.3866141489388137e-01 4.0412913400588191e-01  6.1784615296954137e-01 7.3871317491502697e-01 4.0514388903136189e-01  6.1188557127275645e-01 7.4719474046242917e-01 3.8476916250416188e-01  5.9897363862652397e-01 7.5935534271069327e-01 3.4582406903867874e-01  5.7904705695430936e-01 7.6034491344720490e-01 3.0025060477720095e-01  5.5234755465386465e-01 7.3578257862745211e-01 2.5025204150678915e-01  5.2306845710166094e-01 6.5461599436018625e-01 2.1363427480033531e-01  4.9538741440048173e-01 5.1848820680065333e-01 1.8931996149880095e-01  4.7313663295297470e-01 3.4974649081928766e-01 1.8310789507432795e-01  4.6224659944143964e-01 2.0253173042604167e-01 2.1157251095081228e-01  4.6958760881707512e-01 1.1558878119851203e-01 3.1175850698597007e-01  5.0923632353161297e-01 1.0389434175618506e-01 5.7649895279149399e-01  5.8522514485260568e-01 2.4114060974401563e-01 8.5948701640921188e-01  6.3552848370333359e-01 5.3888447095006053e-01 6.8709727090636652e-01  6.2400523294494825e-01 7.2214617487873833e-01 4.3471433291783018e-01  5.9148394560149031e-01 7.7413282860332167e-01 3.1125267741973822e-01  5.6850085341645107e-01 7.6414390552229028e-01 2.6480867631929317e-01  5.5537881272286704e-01 7.4461036378427248e-01 2.4446494223228801e-01  5.4563317223010099e-01 7.2502819621940684e-01 2.3055986458307764e-01  5.3728296288498256e-01 7.0406177383036694e-01 2.1922979060574715e-01  5.2945965086284985e-01 6.8061197650553829e-01 2.0938125213029973e-01  5.2238207203271947e-01 6.5584707102138795e-01 2.0100487896664865e-01  5.1584155188109626e-01 6.2983012764443269e-01 1.9382818407105645e-01  5.0996342077965928e-01 6.0379290296477217e-01 1.8774336307723039e-01  5.0468992395933598e-01 5.7815315438007941e-01 1.8266244562475920e-01  4.9990531502040020e-01 5.5295658396570413e-01 1.7834650405296451e-01  4.9556863365630938e-01 5.2845699263002432e-01 1.7472372138549555e-01  4.9165609866187054e-01 5.0493731795454222e-01 1.7168860006991543e-01  4.8494673829620782e-01 4.6125850380411060e-01 1.6715056594408226e-01  4.8208999845581357e-01 4.4125513424242163e-01 1.6552578257018655e-01  4.7949514765443413e-01 4.2228491619645447e-01 1.6425794075402642e-01  4.7716242243891760e-01 4.0452806199354457e-01 1.6330140490389464e-01  4.7505887036343292e-01 3.8788544343843762e-01 1.6262815597809727e-01  4.7316119425233877e-01 3.7230554340495470e-01 1.6220175493466438e-01  4.7144833135627412e-01 3.5772361155380006e-01 1.6199589624472205e-01  4.6990397804599626e-01 3.4410336497397220e-01 1.6198230252637791e-01  4.6850956052678300e-01 3.3136374284999631e-01 1.6214245233383243e-01  4.6725076005484134e-01 3.1945069586494590e-01 1.6245516218359440e-01  4.6611492988801773e-01 3.0830547661996149e-01 1.6290937139929412e-01  4.6509420220270170e-01 2.9792996004862665e-01 1.6347559659734587e-01  4.6416386867185672e-01 2.8811381357111954e-01 1.6415875116637318e-01  4.6332351562353047e-01 2.7890307297194122e-01 1.6494087617217587e-01  4.6257217027763931e-01 2.7033517550601044e-01 1.6580279035833129e-01  4.6188297985100962e-01 2.6214288780692097e-01 1.6676154484431757e-01  4.6126423359891916e-01 2.5446244753546859e-01 1.6778964137103453e-01  4.6071727157989012e-01 2.4736114908987028e-01 1.6885958370295592e-01  4.6022215591761173e-01 2.4060579026208934e-01 1.7000473948669281e-01  4.5977685775600630e-01 2.3423202082520830e-01 1.7119252028349161e-01  4.5937840502742822e-01 2.2820647513333167e-01 1.7243181823772905e-01  4.5902352933545632e-01 2.2251894221301974e-01 1.7371191995843027e-01  4.5870686277715711e-01 2.1712329093903149e-01 1.7503164552424050e-01  4.5842572874733378e-01 2.1199639824332395e-01 1.7639158302421507e-01  4.5818064545128734e-01 2.0718907952698698e-01 1.7776718211488154e-01  4.5796529952237031e-01 2.0261211833319379e-01 1.7917530167723952e-01  4.5777663378174466e-01 1.9824095852415435e-01 1.8061445835015333e-01  4.5761699949497031e-01 1.9415484473794475e-01 1.8205300933502122e-01  4.5747967983205889e-01 1.9022912457515004e-01 1.8352587264705286e-01  4.5736429466112805e-01 1.8649998826809805e-01 1.8501028665622793e-01  4.5726992209155715e-01 1.8296871480169719e-01 1.8650139525598794e-01  4.5719433967299927e-01 1.7961010263985022e-01 1.8800119351646236e-01  4.5713610061767940e-01 1.7641770508569010e-01 1.8950571686183920e-01  4.5709372064815257e-01 1.7336958733433330e-01 1.9101948880029568e-01  4.5706574794945881e-01 1.7044362010319605e-01 1.9254716748473613e-01  4.5705161652481791e-01 1.6770727480675029e-01 1.9404680283681386e-01  4.5704980464528494e-01 1.6511352768738263e-01 1.9553692565387856e-01  4.5705911157525958e-01 1.6258158089731056e-01 1.9705755354244639e-01  4.5707860589056215e-01 1.6020629472141021e-01 1.9854842706735001e-01  4.5710717490541702e-01 1.5797052896535971e-01 2.0001305241439341e-01  4.5714406292578719e-01 1.5582442269352662e-01 2.0147599267012559e-01  4.5718808010812539e-01 1.5378992906678307e-01 2.0291750710003453e-01  4.5723923884038964e-01 1.5183844866332596e-01 2.0435445488106568e-01  4.5729488728074741e-01 1.5001789342860855e-01 2.0574310973994805e-01  4.5735641151562667e-01 1.4826634800035521e-01 2.0712790041074469e-01  4.5742157360133145e-01 1.4661616566984842e-01 2.0847647289342744e-01  4.5749059845581186e-01 1.4504087585731840e-01 2.0980568695463328e-01  4.5756328496046389e-01 1.4353127459046028e-01 2.1111972955509306e-01  4.5763696858718461e-01 1.4213244758762597e-01 2.1237627000614556e-01  4.5771165718945206e-01 1.4081688581940355e-01 2.1359119870980911e-01  4.5778903684207511e-01 1.3954403852235228e-01 2.1479838841218687e-01  4.5786585917132216e-01 1.3836132293718417e-01 2.1595053911555592e-01  4.5794192083651680e-01 1.3725878044722023e-01 2.1705213349568681e-01  4.5801798332558336e-01 1.3621269888277379e-01 2.1812152499490603e-01  4.5809345013728170e-01 1.3522461990172663e-01 2.1915418356985603e-01  4.5816638904420914e-01 1.3431345375661047e-01 2.2012725998709426e-01  4.5720385377264672e-01 1.5318302824339286e-01 2.0336324484930882e-01  6.2987043131325715e-01 5.3421539966178822e-01 6.9432320030604133e-01  4.5841191179341817e-01 1.3148956195679362e-01 2.2326715747627396e-01  4.9025282040274226e-01 4.9612274683926388e-01 1.7068701545292489e-01  4.5817439460837250e-01 1.3422406729318681e-01 2.2022764593942851e-01  6.1429270446289275e-01 3.5636352443085656e-01 8.3102548385460551e-01  4.5742350243225660e-01 1.4648879927408989e-01 2.0856827619396190e-01  4.5754295616805613e-01 1.9224164359910983e-01 1.8274275030785972e-01  5.8466736177676359e-01 5.4778830869492545e-01 5.8746772853281615e-01  6.1436043273624874e-01 4.2908677032300824e-01 7.7524952323785901e-01  4.5712131166215636e-01 1.7539877192393913e-01 1.9000793673151894e-01  6.1840519303764152e-01 6.8216702840749643e-01 4.8448055299596376e-01  5.2824605638058808e-01 6.4886868600425873e-01 2.4208913203813584e-01  4.5771244551157797e-01 1.9662324522921909e-01 1.8117841874886148e-01  5.0633746258179568e-01 5.8615695422560699e-01 1.8455383928021524e-01  4.5871633312849536e-01 1.2845706256240053e-01 2.2688986105908143e-01  5.2461458996717447e-01 6.1702948576150429e-01 2.5636659797402767e-01  5.0072199504395976e-01 9.2220535011135321e-02 5.2365509353869710e-01  4.5885530023174897e-01 1.2719834253429199e-01 2.2847223809428155e-01  4.5959824444699787e-01 2.3155391632049713e-01 1.7173588658639385e-01  4.7605383766080056e-01 3.9570223737779098e-01 1.6304937791621682e-01  4.6383721665843414e-01 2.8456812256598596e-01 1.6444874170990084e-01  4.5883179219624526e-01 1.2741122652256545e-01 2.2820409740544423e-01  4.6752173569857552e-01 9.1582703252489669e-02 3.0482556494236046e-01  4.6374912076075314e-01 2.8357118445722457e-01 1.6457283737944312e-01  4.6941246278967586e-01 3.3963334160734726e-01 1.6203623012891619e-01  4.5868275614127890e-01 1.2878410392657802e-01 2.2649273325872424e-01  4.5758108100891809e-01 1.4319617592014416e-01 2.1142121490922125e-01  5.3422440900449930e-01 6.9525053940185921e-01 2.1538985419480283e-01  5.0781986358371722e-01 5.4756912736089780e-01 2.3521336453939828e-01  4.5707470105542158e-01 1.6018110438840183e-01 1.9854858743813192e-01  4.5800195150581630e-01 1.3639765014818078e-01 2.1792068242337898e-01  4.8033266262349816e-01 8.1542518008214687e-02 3.9087086692633571e-01  4.5993863722412559e-01 2.3658511999377299e-01 1.7075889114058013e-01  4.7633967890189538e-01 3.9806690747186313e-01 1.6303318784887944e-01  4.5849538826406022e-01 1.3063588263644843e-01 2.2427042849993170e-01  6.3004966379187322e-01 6.6984032268624316e-01 5.1577829147881860e-01  4.7992139794527516e-01 3.6476906231756651e-01 2.1512479212418859e-01  4.5788147090656311e-01 1.3814189838534352e-01 2.1617232851415408e-01  4.5706398773528617e-01 1.6189790443870752e-01 1.9748197634474321e-01  5.0743520075848403e-01 5.9170914425625631e-01 1.8531360189048207e-01  4.9715626475901536e-01 8.2470020836454952e-02 4.9819192059212997e-01  4.5708819837502546e-01 1.7318236383535449e-01 1.9110601104187128e-01  4.5878995349307700e-01 1.2778482631596239e-01 2.2773109137006298e-01  4.5721272972895777e-01 1.5266346231407948e-01 2.0372506236151025e-01  4.6824347242411979e-01 9.7297335337143909e-02 3.0589902783990247e-01  6.2965808739053519e-01 5.9667887313867152e-01 6.1126173902727521e-01  4.5839713572239021e-01 2.1148519616088288e-01 1.7653897576852623e-01  5.5330896705589394e-01 7.4213829134117926e-01 2.4265012529308122e-01  4.5737495065492545e-01 1.4780295674391522e-01 2.0750766966209291e-01  4.5820402282007350e-01 1.3383452311458505e-01 2.2063764976246908e-01  4.5832722389756514e-01 2.1008588529755198e-01 1.7693237833364989e-01  4.6356774755438240e-01 1.2956348652764643e-01 2.5933469718155611e-01  4.6101619141593181e-01 2.5126790363516849e-01 1.6826266256750019e-01  5.6465695181707731e-01 7.5852729733857482e-01 2.5964804974186256e-01  4.5774343594224737e-01 1.4023263276585987e-01 2.1412747760451761e-01  4.5733064058