<?xml version="1.0"?>
<VTKFile type="UnstructuredGrid"  version="0.1"  >
<UnstructuredGrid>
<Piece  NumberOfPoints="4940" NumberOfCells="9650">
<Points>
<DataArray  type="Float64"  NumberOfComponents="3"  format="ascii">500 250 0  0 250 0  250 500 0  250 0 0  256.8885856082646 499.9050767557906 0  263.7719401218049 499.6203791065173 0  270.6448364229772 499.1461232471188 0  277.5020553257866 498.4826693209355 0  284.3383895508592 497.6305211460281 0  291.1486476865662 496.5903258312597 0  297.9276581259182 495.3628732847843 0  304.6702729675493 493.9490956196674 0  311.3713719748657 492.3500664368026 0  318.0258664141369 490.5670000199653 0  324.6287029687753 488.6012504015818 0  331.1748675330201 486.4543103455647 0  337.6593890460416 484.1278102064655 0  344.0773432429536 481.6235166997244 0  350.4238564271474 478.9433315480048 0  356.694109139292 476.0892900492477 0  362.88333985546 473.0635595140469 0  368.9868485575419 469.8684376402048 0  375.0000003153078 466.5063507640667 0  380.9182288257928 462.9798520074548 0  386.7370398729688 459.2916193419558 0  392.4520147244077 455.444453565817 0  398.0588135356345 451.4412761437442 0  403.5531785622926 447.285127045646 0  408.9309374414144 442.9791624087773 0  414.1880064015299 438.5266521049243 0  419.3203932989752 433.9309773069245 0  424.324200661095 429.1956279150535 0  429.1956286596235 424.3241998957182 0  433.9309780058756 419.3203925397119 0  438.5266527445345 414.1880056671062 0  442.9791630130591 408.9309367076756 0  447.2851276060475 403.5531778422888 0  451.4412766621026 398.0588128303826 0  455.4444540361634 392.4520140460735 0  459.2916197786263 386.7370392045948 0  462.9798524073514 380.9182281752347 0  466.5063511234856 374.9999996927758 0  469.8684379657123 368.9868479560565 0  473.0635598144817 362.8833392617846 0  476.0892903190255 356.6941085676214 0  478.9433317963513 350.4238558609745 0  481.6235169154735 344.0773427117675 0  484.12781039012 337.6593885555221 0  486.4543105028062 331.1748670749914 0  488.601250531677 324.6287025528375 0  490.5670001317469 318.0258660188321 0  492.3500665291326 311.3713716102628 0  493.949095695951 304.6702726271575 0  495.3628733416623 297.9276578347343 0  496.5903258712341 291.1486474470129 0  497.6305211749058 284.3383893426084 0  498.4826693388848 277.502055163614 0  499.1461232580606 270.6448362909296 0  499.6203791109319 263.7719400417897 0  499.9050767571306 256.8885855596534 0  499.9050767559877 243.1114143988867 0  499.6203791069493 236.2280598860241 0  499.1461232485393 229.3551635941651 0  498.4826693235677 222.4979446979962 0  497.6305211491849 215.6616104719064 0  496.5903258357701 208.8513523404629 0  495.3628732906988 202.0723419043604 0  493.9490956264813 195.3297270628552 0  492.3500664487791 188.6286280724281 0  490.5670000344809 181.9741336371959 0  488.6012504175981 175.3712970824318 0  486.4543103623226 168.8251325157939 0  484.1278102222298 162.3406109960628 0  481.6235167152198 155.9226567951971 0  478.9433315621651 149.5761436051346 0  476.0892900516498 143.3058908657982 0  473.063559513628 137.1166601437124 0  469.8684376406648 131.0131514433083 0  466.5063507675389 124.9999996907064 0  462.9798520124137 119.0817711822745 0  459.2916193464549 113.2629601339176 0  455.4444535642773 107.5479852733717 0  451.4412761528674 101.9411864767781 0  447.2851270583545 96.44682145403524 0  442.9791624165781 91.06906256805769 0  438.5266521117469 85.81199360630404 0  433.9309773156125 80.67960671046254 0  429.1956279150353 75.67579933888632 0  424.3241998888952 70.80437133373906 0  419.3203925223282 66.06902197812161 0  414.1880056411937 61.47334723289828 0  408.9309366751728 57.0208369601728 0  403.5531778009394 52.71487236176898 0  398.058812796452 48.55872331295853 0  392.4520140187753 44.55554594490843 0  386.7370391799677 40.70838020528396 0  380.9182281475119 37.02014757560744 0  374.9999996718656 33.49364886444181 0  368.9868479340393 30.13156202237255 0  362.8833392380029 26.93644017348339 0  356.6941085456942 23.91070967062674 0  350.4238558420009 21.0566681953261 0  344.0773426899492 18.37648307566465 0  337.6593885328982 15.87218960140942 0  331.1748670549786 13.54568949032341 0  324.6287025315056 11.39874946165088 0  318.0258660010876 9.432999863235466 0  311.3713716017894 7.649933468721599 0  304.6702726190621 6.050904302234756 0  297.9276578269805 4.637126656823085 0  291.148647441857 3.409674127905504 0  284.3383893425031 2.369478825079682 0  277.502055159398 1.517330660648639 0  270.6448362875833 0.853876741662134 0  263.7719400401456 0.3796208889774277 0  256.8885855592052 0.09492324285704967 0  243.1114143979462 0.09492324403817065 0  236.2280598850882 0.3796208931023841 0  229.3551635938215 0.8538767514891958 0  222.4979446968584 1.517330676558146 0  215.6616104703111 2.369478851036291 0  208.8513523382973 3.409674164591252 0  202.0723419066374 4.637126708856528 0  195.3297270659513 6.050904372824903 0  188.628628074828 7.649933550613184 0  181.9741336377093 9.432999965373938 0  175.3712970793675 11.39874958336037 0  168.8251325057572 13.54568964112298 0  162.340610986655 15.87218978129263 0  155.9226567874317 18.37648328793418 0  149.576143602509 21.05666843898663 0  143.3058908718157 23.91070994551046 0  137.1166601505524 26.93644048291054 0  131.0131514451933 30.13156235831508 0  124.9999996848412 33.49364923584736 0  119.0817711715717 37.0201479941652 0  113.2629601211624 40.70838066187849 0  107.5479852622251 44.55554644345162 0  101.9411864693332 48.55872385260452 0  96.44682143286516 52.71487295812284 0  91.06906254351222 57.02083760363669 0  85.81199358272519 61.4733479087879 0  80.67960667988106 66.06902271253972 0  75.67579930062769 70.80437212218331 0  70.80437129287643 75.67580015310926 0  66.06902193673014 80.67960752263491 0  61.47334718684866 85.81199441168215 0  57.02083692524275 91.0690633672404 0  52.71487232786438 96.44682224262129 0  48.55872328070024 101.941187247437 0  44.55554591578033 107.5479860232332 0  40.7083801742321 113.2629608675606 0  37.02014754791168 119.0817718975441 0  33.49364883372994 125.000000381329 0  30.13156199866361 131.0131521097709 0  26.9364401549829 137.1166607985551 0  23.91070965524918 143.3058914868915 0  21.05666818346614 149.576144185037 0  18.37648306853811 155.9226573275967 0  15.8721895918909 162.3406114925245 0  13.54568948170046 168.8251329701392 0  11.39874945301878 175.3712974960928 0  9.432999857087736 181.9741340206533 0  7.649933466342702 188.6286284076045 0  6.050904301250966 195.3297273853278 0  4.637126656808988 202.0723421730917 0  3.409674127767772 208.8513525589684 0  2.369478824521138 215.6616106615248 0  1.517330660909465 222.4979448382452 0  0.8538767414496533 229.355163714981 0  0.3796208887135322 236.2280599646376 0  0.09492324266324204 243.1114144478261 0  0.0949232442452228 256.8885856095658 0  0.3796208935834784 263.7719401236316 0  0.8538767530323526 270.6448364248016 0  1.517330679476544 277.5020553295092 0  2.369478854618649 284.3383895555228 0  3.409674170191892 291.1486476952655 0  4.6371267162381 297.9276581311522 0  6.050904381420935 304.6702729724059 0  7.649933562385399 311.3713719716595 0  9.43299997979841 318.0258664133013 0  11.3987495994252 324.6287029719946 0  13.54568965885832 331.174867545904 0  15.87218979367188 337.6593890464085 0  18.37648329843151 344.0773432384132 0  21.05666844777872 350.423856417535 0  23.91070995156048 356.6941091410045 0  26.93644048988043 362.8833398632205 0  30.13156235982007 368.9868485575877 0  33.49364924138357 375.0000003247478 0  37.0201480006036 380.9182288389023 0  40.70838066758398 386.7370398875706 0  44.55554644477201 392.4520147396792 0  48.55872386086904 398.0588135419111 0  52.71487295981296 403.5531785693063 0  57.02083760525949 408.9309374584583 0  61.47334790862246 414.1880064170849 0  66.06902271205095 419.320393319588 0  70.80437211216579 424.3242006890749 0  75.67580013809859 429.195628692521 0  80.6796075127923 433.930978054209 0  85.81199439754931 438.5266528008431 0  91.06906334717917 442.9791630582355 0  96.44682221438322 447.2851276501571 0  101.9411872243843 451.441276702356 0  107.5479859945825 455.4444540643537 0  113.2629608446994 459.2916198108319 0  119.0817718768376 462.9798524393601 0  125.0000003647644 466.5063511567065 0  131.0131521012763 469.8684379967393 0  137.1166607840049 473.0635598376539 0  143.3058914748804 476.0892903390826 0  149.5761441732679 478.9433318113714 0  155.9226573130112 481.6235169255377 0  162.3406114779862 484.1278104026658 0  168.8251329570439 486.4543105138039 0  175.3712974805475 488.601250542119 0  181.9741340135204 490.5670001408953 0  188.6286284005059 492.3500665318597 0  195.3297273788229 493.9490956972913 0  202.0723421640089 495.3628733414168 0  208.8513525529672 496.5903258712308 0  215.6616106544547 497.6305211744985 0  222.4979448327038 498.4826693384772 0  229.3551637102845 499.1461232581612 0  236.2280599621369 499.6203791111485 0  243.1114144470173 499.9050767573145 0  155.2373389820306 474.8197567317462 0  25.36256300907667 153.9152755065208 0  432.3709625126712 412.6214396304305 0  6.013151705810699 246.637913163471 0  246.6379131630491 493.986848294322 0  338.6995838441862 22.68244767887072 0  477.3175523131281 338.6995838660569 0  493.9868482700757 246.6379131399102 0  246.6201155078769 6.218451882810491 0  417.6179310263282 72.7156044707053 0  102.2232990934413 445.0100869616822 0  63.66330858966404 92.20354579482142 0  391.3105220491464 50.73522820883105 0  72.79295043967942 418.0702734974704 0  448.290574428537 108.25674339002 0  402.4604651193511 440.7462829841712 0  97.55317348421397 59.11376320116034 0  136.7376477664901 33.58246472647134 0  363.3288394375288 465.6947312928271 0  44.0678766556007 381.0860953771871 0  469.6905266180034 142.3890690100806 0  22.68244791668644 338.6995843487432 0  338.699584349159 477.317552078365 0  173.389488083762 18.6681884918202 0  483.4809734778481 179.7121987795732 0  13.50237455842738 306.4709525540879 0  305.9825168523021 487.24416992
[...]
<PointData  Vectors="f_12"> 
<DataArray  type="Float64"  Name="f_12"  NumberOfComponents="3" format="ascii">5.1828361445165583e-01 6.4002051963972428e-01 1.9620247855498618e-01  5.9764066413309891e-01 7.7220085664304738e-01 3.2556497673563545e-01  4.9469033559026121e-01 5.2336366058373085e-01 1.7387404827435557e-01  4.6588242923995615e-01 3.0636571553969533e-01 1.6295389754173001e-01  4.9426923813414664e-01 5.2086651126745398e-01 1.7354330172192201e-01  4.9389390561135843e-01 5.1862555840066094e-01 1.7325143378340693e-01  4.9352661380501578e-01 5.1642157699810487e-01 1.7296733047822110e-01  4.9319700522974930e-01 5.1443334647660255e-01 1.7271467100610982e-01  4.9289116245549097e-01 5.1257935835930546e-01 1.7248201602407329e-01  4.9261086192978520e-01 5.1087298595076336e-01 1.7226971516754697e-01  4.9235507579719490e-01 5.0930979941909449e-01 1.7207722078371032e-01  4.9212032598484934e-01 5.0787006056727946e-01 1.7190143856822149e-01  4.9190937307726740e-01 5.0657198392175806e-01 1.7174412297053102e-01  4.9172386034721460e-01 5.0542708824083271e-01 1.7160662317201086e-01  4.9158575204058713e-01 5.0457154223797118e-01 1.7150519778769938e-01  4.9142312368239865e-01 5.0356479965102086e-01 1.7138456444089978e-01  4.9134599266882678e-01 5.0308419584645636e-01 1.7132870417418836e-01  4.9125295619909126e-01 5.0250624342603156e-01 1.7126017920291434e-01  4.9119183064003274e-01 5.0212574285067380e-01 1.7121552303314647e-01  4.9114965302234792e-01 5.0186352271630941e-01 1.7118449851352091e-01  4.9112228715945133e-01 5.0169418437908719e-01 1.7116324878279118e-01  4.9113905322381696e-01 5.0179865055524042e-01 1.7117570825619174e-01  4.9118148786385613e-01 5.0206296718437560e-01 1.7120731151026286e-01  4.9122024341732318e-01 5.0230589436672590e-01 1.7123452583602905e-01  4.9128482559690173e-01 5.0270959430920870e-01 1.7128089057030274e-01  4.9138606363560811e-01 5.0333943526885860e-01 1.7135501131736641e-01  4.9152935664805436e-01 5.0422829670398661e-01 1.7146077199450929e-01  4.9166586053318817e-01 5.0507525731976022e-01 1.7156052335682301e-01  4.9182259854649119e-01 5.0604558546466216e-01 1.7167536553635449e-01  4.9203230156081496e-01 5.0733824922861348e-01 1.7183112557333610e-01  4.9224360109912446e-01 5.0863807428212837e-01 1.7198805635967263e-01  4.9248597009708184e-01 5.1012292588694719e-01 1.7216932598243948e-01  4.9275588528293940e-01 5.1177047316803226e-01 1.7237265984086539e-01  4.9303625645726817e-01 5.1347587729746402e-01 1.7258427192421302e-01  4.9337084023873806e-01 5.1549934900989081e-01 1.7283976042273361e-01  4.9372516682293255e-01 5.1763220907362018e-01 1.7311234989444779e-01  4.9408154571256330e-01 5.1976817972088285e-01 1.7338659860945815e-01  4.9449100225034898e-01 5.2220591495167501e-01 1.7370557331812525e-01  4.9495754284054255e-01 5.2496314432475677e-01 1.7407432410382254e-01  4.9543500501271137e-01 5.2776689404744370e-01 1.7445396058601592e-01  4.9591810067144326e-01 5.3058532011460591e-01 1.7484004368042472e-01  4.9645877622420420e-01 5.3371282235004247e-01 1.7527794894033452e-01  4.9706032681669482e-01 5.3716243170118649e-01 1.7577080534420966e-01  4.9768334070331699e-01 5.4070291640658907e-01 1.7628614988225516e-01  4.9835938379068834e-01 5.4450535574410674e-01 1.7685321592101286e-01  4.9908108758395447e-01 5.4852260994464608e-01 1.7746461878847669e-01  4.9984468127680165e-01 5.5272555099275678e-01 1.7811917421417858e-01  5.0064699163436421e-01 5.5709063493282063e-01 1.7881610402675560e-01  5.0154516064312127e-01 5.6190743232783191e-01 1.7960781306441553e-01  5.0248755568246306e-01 5.6689450555386045e-01 1.8044937708608583e-01  5.0348543384512523e-01 5.7209120244749623e-01 1.8135362233019445e-01  5.0455752474333526e-01 5.7758978015617068e-01 1.8233892265064539e-01  5.0568673573342793e-01 5.8327778688514942e-01 1.8339170289743750e-01  5.0692596819951286e-01 5.8940309022006898e-01 1.8456772768866450e-01  5.0823906183251999e-01 5.9576180276625468e-01 1.8583299180064361e-01  5.0962169572574822e-01 6.0231321420080930e-01 1.8718663282647316e-01  5.1112094009231746e-01 6.0924709478624639e-01 1.8868159486084363e-01  5.1271617432490035e-01 6.1643866676871306e-01 1.9030274376878104e-01  5.1440609633439549e-01 6.2385292313901708e-01 1.9203918141305967e-01  5.1614429836637965e-01 6.3129809739800136e-01 1.9386774487142069e-01  5.2031882771550209e-01 6.4811168863413315e-01 1.9841243056387220e-01  5.2253031106863712e-01 6.5654165915103979e-01 2.0089375105842508e-01  5.2485819352925644e-01 6.6504452235069922e-01 2.0357180907516181e-01  5.2742431687725289e-01 6.7398169990846934e-01 2.0658046303404171e-01  5.3014399115781174e-01 6.8297182184580207e-01 2.0985924753661125e-01  5.3304543995536025e-01 6.9202985863711630e-01 2.1343595617709402e-01  5.3613251315863131e-01 7.0105612257029326e-01 2.1736095770332767e-01  5.3943347482889392e-01 7.1004371163557545e-01 2.2167674126617309e-01  5.4292880874768457e-01 7.1883192248200078e-01 2.2638712170982600e-01  5.4661694367822489e-01 7.2731349238850473e-01 2.3152179394481251e-01  5.5059837054485217e-01 7.3556301302195581e-01 2.3726546265318429e-01  5.5476031642984902e-01 7.4325578121654778e-01 2.4349868409424363e-01  5.5915286973668366e-01 7.5034405545531502e-01 2.5033538421313634e-01  5.6383775885831922e-01 7.5678833629088438e-01 2.5796320256660366e-01  5.6877163955941279e-01 7.6237172130387987e-01 2.6637304930594202e-01  5.7392926786660103e-01 7.6692977189402300e-01 2.7563625289542509e-01  5.7931076373063251e-01 7.7034948192944730e-01 2.8583694576540192e-01  5.8490291126638994e-01 7.7247249364383619e-01 2.9711994583568824e-01  5.9070957849013994e-01 7.7315980993889699e-01 3.0966349361476969e-01  5.9668921367167982e-01 7.7228344659426085e-01 3.2354939892207091e-01  6.0270241606162611e-01 7.6977413505159931e-01 3.3866093837929145e-01  6.0893084564208955e-01 7.6525706978782493e-01 3.5589057688005282e-01  6.1513908190101807e-01 7.5869791831045419e-01 3.7495160987512277e-01  6.2131681037135156e-01 7.4986703862201443e-01 3.9626209346167374e-01  6.2732513594628159e-01 7.3853537748292386e-01 4.2001375070205388e-01  6.3303741271930414e-01 7.2443671671110776e-01 4.4649779705283660e-01  6.3830603734987879e-01 7.0723722104629638e-01 4.7603554620142696e-01  6.4293439660416696e-01 6.8656623768998359e-01 5.0888623297929381e-01  6.4671076940030470e-01 6.6204690343515438e-01 5.4517073707962049e-01  6.4933661025305933e-01 6.3313598429410856e-01 5.8499218376283046e-01  6.5052520385482637e-01 5.9943001974583821e-01 6.2803631439800645e-01  6.4995756593444332e-01 5.6056620155072290e-01 6.7345419942966700e-01  6.4728307546481634e-01 5.1592624760664951e-01 7.2052962221024863e-01  6.4156125999604885e-01 4.6184390136834624e-01 7.6931392568184420e-01  6.3055057376336132e-01 3.9160841896957349e-01 8.1861050828693371e-01  6.1153069423361173e-01 3.0205706388683679e-01 8.5669824409783712e-01  5.7970715414103735e-01 1.9713205395204153e-01 8.4107664761939793e-01  5.3774492473016178e-01 1.1480271414094478e-01 7.1301026503695353e-01  5.0058025311803211e-01 8.2662446988141416e-02 5.2275041946405432e-01  4.7738122637818575e-01 8.3170260037630797e-02 3.7587029612169404e-01  4.6507558247481162e-01 1.0150450896725086e-01 2.8633997314468251e-01  4.6002011057178926e-01 1.1803352655759487e-01 2.4479841158887050e-01  4.5838705487375453e-01 1.2815139972260178e-01 2.2881882060483960e-01  4.5867480422418011e-01 1.2411773582288184e-01 2.3293290517592161e-01  4.6172977894880263e-01 1.0944723779391932e-01 2.6075297438192629e-01  4.7016055939872947e-01 9.1354219502302034e-02 3.2570851608987056e-01  4.8936880539944072e-01 8.3722413018345418e-02 4.5515580344648493e-01  5.2852739566994889e-01 1.1103899335571597e-01 6.7704415742398516e-01  5.8791440231689462e-01 2.4754844361185785e-01 8.5349938002718184e-01  6.2741111739591104e-01 5.0075116832606437e-01 7.1720702763489719e-01  6.1240376376926009e-01 6.9687559830091039e-01 4.5173974129882777e-01  5.5605274878811606e-01 7.2841314778545085e-01 2.7070801918216553e-01  5.0748005298765464e-01 5.9269108362486767e-01 1.9094062522367070e-01  4.8485575242974205e-01 4.6076335604955643e-01 1.6814913724791519e-01  4.7479455458003444e-01 3.8628442231527654e-01 1.6270840183835966e-01  4.6936930923600595e-01 3.3940619068074596e-01 1.6221954684250789e-01  4.6368683035186153e-01 2.8302335471783574e-01 1.6468957671535966e-01  4.6173284630207212e-01 2.6138975762585909e-01 1.6649737612306426e-01  4.6077921815626227e-01 2.4898404119371753e-01 1.6835221173383136e-01  4.6005061749805687e-01 2.3899633041018484e-01 1.7005839886781285e-01  4.5955342671617083e-01 2.3184141217115839e-01 1.7139535763104788e-01  4.5927368489988002e-01 2.2753033300180045e-01 1.7230844151287902e-01  4.5915547242925703e-01 2.2566660774557515e-01 1.7271445254190168e-01  4.5916947611384534e-01 2.2589273819491026e-01 1.7266375061285938e-01  4.5933041459482604e-01 2.2840490412053424e-01 1.7212241576250414e-01  4.5957862101801095e-01 2.3225667226059948e-01 1.7130199858731693e-01  4.6012065746279945e-01 2.4005343681389074e-01 1.6984254526589052e-01  4.6088981209658325e-01 2.5035910240402531e-01 1.6817612386522568e-01  4.6197806815614306e-01 2.6386617653820621e-01 1.6640091801280327e-01  4.6344139177811633e-01 2.8078331543015211e-01 1.6462078462425395e-01  4.6554052123541273e-01 3.0301676843102382e-01 1.6306584315137235e-01  4.6858387015198238e-01 3.3238836886034001e-01 1.6213505189384414e-01  4.7281436476780575e-01 3.6973082997781953e-01 1.6226517356822107e-01  4.7913542026252942e-01 4.2046153339570419e-01 1.6418200010914763e-01  4.8984964603675846e-01 4.9436379367377525e-01 1.7057320730511985e-01  5.1171618691374465e-01 6.1630191951379532e-01 1.9235151529097724e-01  5.5347951968367437e-01 7.3084332537640950e-01 2.5840693924073249e-01  6.0341804003798039e-01 7.2927953534663581e-01 3.9382452869000978e-01  6.3271611036078668e-01 6.1022382909709716e-01 5.9494772311330391e-01  6.2434492135878550e-01 4.1612245608504744e-01 7.9653054400457046e-01  5.8594019149629284e-01 2.2859591320713477e-01 8.5365308151062336e-01  5.4471061518508901e-01 1.2842579378848490e-01 7.4677726397570821e-01  5.1792843112804210e-01 9.3943320503576802e-02 6.2193938639189250e-01  5.0530357591235642e-01 8.3933353898378360e-02 5.5198604509165050e-01  5.0242159059052394e-01 8.2038504170956567e-02 5.3485331682765103e-01  5.0750068166449025e-01 8.4627304519462224e-02 5.6344759235616582e-01  5.2049788047643952e-01 9.4712202744664464e-02 6.3237034542231885e-01  5.4215448758460960e-01 1.2007138135763534e-01 7.3134778464661554e-01  5.7007146724399793e-01 1.7182407688629345e-01 8.2244749812767004e-01  5.9999765528421500e-01 2.5460848761574939e-01 8.6663177034690031e-01  6.2199191832021039e-01 3.4606454619847610e-01 8.4120452294618520e-01  6.3554838711132677e-01 4.1802572632807178e-01 8.0194300245364936e-01  6.4321386432683014e-01 4.7181495560195669e-01 7.6064550743331838e-01  6.4744490215502959e-01 5.1281161640942285e-01 7.2332464070894731e-01  6.4978108010504587e-01 5.4618391661238308e-01 6.8924264600462448e-01  6.5088621173435801e-01 5.7504681656949341e-01 6.5712202797250530e-01  6.5101516061698550e-01 5.9961119043638067e-01 6.2801604065431316e-01  6.5038166376542850e-01 6.2180738138402625e-01 6.0007175621139275e-01  6.4906361255298717e-01 6.4281079067656333e-01 5.7223887949822727e-01  6.4715950733703165e-01 6.6154078444125108e-01 5.4617221895318746e-01  6.4473899239440291e-01 6.7837694760258282e-01 5.2157964053969930e-01  6.4186731522370211e-01 6.9365507449937680e-01 4.9819798237655871e-01  6.3851409510604928e-01 7.0771959205329094e-01 4.7557368505858050e-01  6.3498884079681062e-01 7.1955775898518870e-01 4.5544268774615199e-01  6.3113994265734308e-01 7.3026504632160827e-01 4.3618093520602891e-01  6.2715303736084138e-01 7.3950685981402731e-01 4.1843126679825277e-01  6.2293038938515155e-01 7.4760481952423186e-01 4.0161569187387330e-01  6.1869945332596210e-01 7.5436284638376994e-01 3.8627745998402413e-01  6.1446956325105939e-01 7.5988368324741806e-01 3.7226833232493117e-01  6.1021816316342581e-01 7.6437353403174724e-01 3.5924616825330236e-01  6.0596829597887703e-01 7.6788166278379877e-01 3.4714902020576233e-01  6.0177212768680599e-01 7.7047219872299366e-01 3.3594350988484006e-01  5.9360284124131957e-01 7.7312784239141974e-01 3.1597650755254297e-01  5.8966504811815212e-01 7.7330786597881052e-01 3.0710460458001354e-01  5.8578928612183256e-01 7.7280114582955628e-01 2.9878945019847453e-01  5.8203746536804768e-01 7.7166507226875447e-01 2.9108598535365787e-01  5.7839763493581942e-01 7.6994706986805428e-01 2.8392278229799472e-01  5.7487223798491827e-01 7.6769946713804971e-01 2.7725207704061605e-01  5.7145845231559023e-01 7.6496316967849676e-01 2.7102766845136100e-01  5.6816492584923228e-01 7.6179346115330338e-01 2.6522457852854242e-01  5.6498394524983120e-01 7.5822619016420290e-01 2.5980009579601243e-01  5.6191461978038759e-01 7.5430143854511178e-01 2.5472417711996143e-01  5.5895396299215772e-01 7.5005411254517995e-01 2.4997195137162204e-01  5.5612286489294771e-01 7.4556522750307930e-01 2.4554563061210455e-01  5.5335926160663773e-01 7.4076498668806146e-01 2.4133640071899815e-01  5.5069648560249462e-01 7.3574928006936746e-01 2.3738129039855921e-01  5.4815654781041767e-01 7.3058836547277406e-01 2.3369815003564445e-01  5.4565396709259673e-01 7.2514333751897631e-01 2.3015161374993934e-01  5.4325166983791873e-01 7.1957525414297507e-01 2.2682205713414474e-01  5.4098463970818500e-01 7.1399659199397503e-01 2.2374254173334496e-01  5.3877335227316692e-01 7.0825638248549594e-01 2.2080643698698005e-01  5.3664091520920998e-01 7.0243716824763158e-01 2.1802127453056250e-01  5.3458066042928909e-01 6.9654400184016441e-01 2.1538371953108276e-01  5.3259463187069112e-01 6.9060398416414048e-01 2.1288842753646797e-01  5.3067177654467379e-01 6.8461024419083427e-01 2.1051319892965453e-01  5.2880693566160375e-01 6.7856355073284613e-01 2.0824975140588403e-01  5.2703046590234315e-01 6.7258844574380872e-01 2.0613090788424909e-01  5.2530508562615164e-01 6.6657665351350093e-01 2.0410551170222807e-01  5.2362826085581282e-01 6.6054527560998499e-01 2.0216820141907257e-01  5.2203799628698944e-01 6.5463875744467548e-01 2.0036099155256970e-01  5.2048178553579816e-01 6.4868820347321465e-01 1.9862020005298098e-01  5.1898051371688614e-01 6.4278515165458494e-01 1.9696325782438967e-01  5.1753901756911824e-01 6.3696528748456138e-01 1.9539755309849258e-01  5.1614756615861912e-01 6.3120312947540824e-01 1.9390786527939036e-01  5.1480668580742639e-01 6.2551598417964727e-01 1.9249277385840435e-01  5.1350805560820112e-01 6.1988070744140888e-01 1.9114198084489631e-01  5.1224303409449556e-01 6.1427055774057782e-01 1.8984339403722081e-01  5.1104977472540747e-01 6.0886815056787646e-01 1.8863601019334367e-01  5.0990514770996642e-01 6.0358180393237204e-01 1.8749422894619658e-01  5.0876946745671892e-01 5.9823928489307521e-01 1.8637471993892021e-01  5.0769516942038240e-01 5.9309308125938354e-01 1.8533076118158748e-01  5.0667479878936439e-01 5.8811978820030852e-01 1.8435334518398230e-01  5.0568360318994399e-01 5.8321113152339488e-01 1.8341491256179529e-01  5.0473530217065721e-01 5.7844195353231054e-01 1.8252808518737107e-01  5.0381492996075639e-01 5.7374409797964676e-01 1.8167888416435679e-01  5.0295192949839906e-01 5.6927691835629179e-01 1.8089127261041335e-01  5.0211174425560778e-01 5.6486935328757659e-01 1.8013495741731733e-01  5.0131469265644246e-01 5.6063441374606882e-01 1.7942595458490035e-01  5.0054674372752683e-01 5.5650427480486608e-01 1.7874946961306559e-01  4.9980394629070857e-01 5.5246389322517186e-01 1.7810256868726493e-01  4.9911302758945586e-01 5.4866297120358021e-01 1.7751035005761737e-01  4.9845893042096562e-01 5.4502640946904213e-01 1.7695469362851710e-01  4.9781915568975538e-01 5.4143607820234885e-01 1.7641642615597075e-01  4.9722222370222285e-01 5.3805362084828257e-01 1.7592004987983237e-01  4.9666323131829387e-01 5.3485791870311539e-01 1.7546099965085774e-01  4.9612862238348737e-01 5.3177617491838691e-01 1.7502507233960138e-01  4.9562049724830626e-01 5.2882540632375263e-01 1.7461504869341565e-01  4.9515035556594750e-01 5.2607372250982221e-01 1.7423903232233012e-01  5.0449048011494380e-01 5.7719103633631086e-01 1.8230693965827779e-01  6.5015413754923912e-01 6.2347548845859679e-01 5.9787891455900433e-01  4.9344321217981901e-01 5.1592765872357649e-01 1.7290160139414915e-01  6.0029903154105246e-01 7.7112311685767754e-01 3.3224348731034492e-01  4.9513851777233775e-01 5.2599756717043589e-01 1.7423467501243528e-01  4.6305731897576635e-01 1.9725012928074789e-01 2.1724909781320889e-01  5.0058551313432176e-01 5.5673965772305556e-01 1.7877485060779144e-01  5.1971702458902669e-01 6.4575790923133503e-01 1.9776726669803935e-01  4.6522658934652578e-01 2.9948484064856890e-01 1.6347071905613197e-01  6.4841696014751382e-01 6.4419812998752857e-01 5.6999717970323682e-01  5.1441292215736212e-01 6.2381187440228481e-01 1.9208731723450945e-01  5.0575076064959801e-01 9.4448508034883527e-02 5.4657217540686098e-01  6.3197699438123511e-01 4.0067252514039275e-01 8.1494102519938483e-01  5.2305539528591805e-01 6.5842779799490647e-01 2.0152276394290272e-01  6.1282334246231929e-01 7.6130776243932297e-01 3.6772681706858684e-01  4.9195106067953664e-01 5.0682877784701208e-01 1.7177704088158050e-01  5.7546251201168608e-01 2.2106825964579921e-01 8.3311791912100275e-01  4.7741998759261711e-01 4.0633045399453427e-01 1.6404698982063196e-01  4.9135974560482698e-01 5.0316636769491496e-01 1.7134300877315770e-01  5.3579533479711539e-01 7.0003791942053650e-01 2.1694384370646982e-01  5.7731330919982182e-01 7.6918558550174232e-01 2.8203733597752662e-01  5.5243041889666245e-01 7.3905687745730986e-01 2.3996279116349115e-01  4.9150140030131795e-01 5.0404267704153971e-01 1.7144756155368820e-01  4.6097486889822548e-01 2.5123772388761073e-01 1.6815177805881482e-01  5.4964745475710364e-01 7.3365895274976578e-01 2.3591086518826190e-01  5.6719693563592211e-01 7.6072349955788232e-01 2.6359402214896227e-01  4.9226375752321999e-01 5.0874247692847296e-01 1.7201430332993034e-01  4.9968054014538205e-01 5.5178128651646896e-01 1.7800275231100227e-01  6.3364353012668895e-01 7.2332486100104409e-01 4.4872351268047733e-01  5.9491016349623727e-01 2.9611948830300938e-01 8.4416725591060382e-01  5.0669376944608990e-01 5.8825032636302155e-01 1.8435957672906669e-01  4.9583229001153289e-01 5.3007334959857388e-01 1.7477964682537006e-01  4.5944064071520291e-01 2.2984787610202362e-01 1.7191071931340776e-01  5.3535117580310987e-01 6.9879706417688869e-01 2.1638792867026807e-01  5.8075977562728143e-01 7.7109518068118865e-01 2.8858206395287228e-01  4.9325481304282626e-01 5.1477491446215928e-01 1.7276430874473728e-01  5.0329774140664219e-01 9.3143791233161369e-02 5.3168847430854627e-01  6.4225023793738345e-01 4.6981149175999337e-01 7.6238754486440585e-01  4.9714770218287674e-01 5.3762152912901717e-01 1.7586441692452756e-01  5.0850817608836818e-01 5.9699250518737901e-01 1.8612588118173459e-01  6.1687347894801670e-01 7.5676356363434960e-01 3.8025230453882830e-01  5.0137685257405329e-01 5.5751611550631108e-01 1.8632786903192633e-01  5.1217573178364029e-01 6.1400113988314320e-01 1.8976749553494662e-01  4.9164504386590602e-01 5.0493416300771243e-01 1.7155360115601176e-01  5.0339985879986893e-01 5.7163307266375396e-01 1.8128988163356066e-01  4.6064067550217336e-01 2.4677941270148673e-01 1.6886538619323604e-01  4.7092905138015095e-01 1.0922785574428955e-01 3.2037124716004545e-01  5.2682590717543543e-01 6.7191429997672047e-01 2.0590014208086210e-01  6.3650784839169838e-01 7.1342624064122695e-01 4.6560784528986582e-01  5.0193120945559222e-01 5.6390491993121716e-01 1.7997961504268567e-01  4.9460653013126665e-01 5.2287911245854546e-01 1.7380593051206220e-01  5.2817649062426941e-01 6.7645555540109192e-01 2.0750555347606808e-01  5.9180155239948318e-01 7.1902220726630761e-01 3.8112854094261089e-01  5.4231126535368435e-01 7.1728892346377537e-01 2.2555140987098535e-01  6.4381913285857773e-01 6.8307749989961397e-01 5.1441872253327092e-01  4.9766817039566197e-01 5.4060515315060664e-01 1.7628302484703848e-01  5.1853326373