<?xml version="1.0"?>
<VTKFile type="UnstructuredGrid"  version="0.1"  >
<UnstructuredGrid>
<Piece  NumberOfPoints="4940" NumberOfCells="9650">
<Points>
<DataArray  type="Float64"  NumberOfComponents="3"  format="ascii">500 250 0  0 250 0  250 500 0  250 0 0  256.8885856082646 499.9050767557906 0  263.7719401218049 499.6203791065173 0  270.6448364229772 499.1461232471188 0  277.5020553257866 498.4826693209355 0  284.3383895508592 497.6305211460281 0  291.1486476865662 496.5903258312597 0  297.9276581259182 495.3628732847843 0  304.6702729675493 493.9490956196674 0  311.3713719748657 492.3500664368026 0  318.0258664141369 490.5670000199653 0  324.6287029687753 488.6012504015818 0  331.1748675330201 486.4543103455647 0  337.6593890460416 484.1278102064655 0  344.0773432429536 481.6235166997244 0  350.4238564271474 478.9433315480048 0  356.694109139292 476.0892900492477 0  362.88333985546 473.0635595140469 0  368.9868485575419 469.8684376402048 0  375.0000003153078 466.5063507640667 0  380.9182288257928 462.9798520074548 0  386.7370398729688 459.2916193419558 0  392.4520147244077 455.444453565817 0  398.0588135356345 451.4412761437442 0  403.5531785622926 447.285127045646 0  408.9309374414144 442.9791624087773 0  414.1880064015299 438.5266521049243 0  419.3203932989752 433.9309773069245 0  424.324200661095 429.1956279150535 0  429.1956286596235 424.3241998957182 0  433.9309780058756 419.3203925397119 0  438.5266527445345 414.1880056671062 0  442.9791630130591 408.9309367076756 0  447.2851276060475 403.5531778422888 0  451.4412766621026 398.0588128303826 0  455.4444540361634 392.4520140460735 0  459.2916197786263 386.7370392045948 0  462.9798524073514 380.9182281752347 0  466.5063511234856 374.9999996927758 0  469.8684379657123 368.9868479560565 0  473.0635598144817 362.8833392617846 0  476.0892903190255 356.6941085676214 0  478.9433317963513 350.4238558609745 0  481.6235169154735 344.0773427117675 0  484.12781039012 337.6593885555221 0  486.4543105028062 331.1748670749914 0  488.601250531677 324.6287025528375 0  490.5670001317469 318.0258660188321 0  492.3500665291326 311.3713716102628 0  493.949095695951 304.6702726271575 0  495.3628733416623 297.9276578347343 0  496.5903258712341 291.1486474470129 0  497.6305211749058 284.3383893426084 0  498.4826693388848 277.502055163614 0  499.1461232580606 270.6448362909296 0  499.6203791109319 263.7719400417897 0  499.9050767571306 256.8885855596534 0  499.9050767559877 243.1114143988867 0  499.6203791069493 236.2280598860241 0  499.1461232485393 229.3551635941651 0  498.4826693235677 222.4979446979962 0  497.6305211491849 215.6616104719064 0  496.5903258357701 208.8513523404629 0  495.3628732906988 202.0723419043604 0  493.9490956264813 195.3297270628552 0  492.3500664487791 188.6286280724281 0  490.5670000344809 181.9741336371959 0  488.6012504175981 175.3712970824318 0  486.4543103623226 168.8251325157939 0  484.1278102222298 162.3406109960628 0  481.6235167152198 155.9226567951971 0  478.9433315621651 149.5761436051346 0  476.0892900516498 143.3058908657982 0  473.063559513628 137.1166601437124 0  469.8684376406648 131.0131514433083 0  466.5063507675389 124.9999996907064 0  462.9798520124137 119.0817711822745 0  459.2916193464549 113.2629601339176 0  455.4444535642773 107.5479852733717 0  451.4412761528674 101.9411864767781 0  447.2851270583545 96.44682145403524 0  442.9791624165781 91.06906256805769 0  438.5266521117469 85.81199360630404 0  433.9309773156125 80.67960671046254 0  429.1956279150353 75.67579933888632 0  424.3241998888952 70.80437133373906 0  419.3203925223282 66.06902197812161 0  414.1880056411937 61.47334723289828 0  408.9309366751728 57.0208369601728 0  403.5531778009394 52.71487236176898 0  398.058812796452 48.55872331295853 0  392.4520140187753 44.55554594490843 0  386.7370391799677 40.70838020528396 0  380.9182281475119 37.02014757560744 0  374.9999996718656 33.49364886444181 0  368.9868479340393 30.13156202237255 0  362.8833392380029 26.93644017348339 0  356.6941085456942 23.91070967062674 0  350.4238558420009 21.0566681953261 0  344.0773426899492 18.37648307566465 0  337.6593885328982 15.87218960140942 0  331.1748670549786 13.54568949032341 0  324.6287025315056 11.39874946165088 0  318.0258660010876 9.432999863235466 0  311.3713716017894 7.649933468721599 0  304.6702726190621 6.050904302234756 0  297.9276578269805 4.637126656823085 0  291.148647441857 3.409674127905504 0  284.3383893425031 2.369478825079682 0  277.502055159398 1.517330660648639 0  270.6448362875833 0.853876741662134 0  263.7719400401456 0.3796208889774277 0  256.8885855592052 0.09492324285704967 0  243.1114143979462 0.09492324403817065 0  236.2280598850882 0.3796208931023841 0  229.3551635938215 0.8538767514891958 0  222.4979446968584 1.517330676558146 0  215.6616104703111 2.369478851036291 0  208.8513523382973 3.409674164591252 0  202.0723419066374 4.637126708856528 0  195.3297270659513 6.050904372824903 0  188.628628074828 7.649933550613184 0  181.9741336377093 9.432999965373938 0  175.3712970793675 11.39874958336037 0  168.8251325057572 13.54568964112298 0  162.340610986655 15.87218978129263 0  155.9226567874317 18.37648328793418 0  149.576143602509 21.05666843898663 0  143.3058908718157 23.91070994551046 0  137.1166601505524 26.93644048291054 0  131.0131514451933 30.13156235831508 0  124.9999996848412 33.49364923584736 0  119.0817711715717 37.0201479941652 0  113.2629601211624 40.70838066187849 0  107.5479852622251 44.55554644345162 0  101.9411864693332 48.55872385260452 0  96.44682143286516 52.71487295812284 0  91.06906254351222 57.02083760363669 0  85.81199358272519 61.4733479087879 0  80.67960667988106 66.06902271253972 0  75.67579930062769 70.80437212218331 0  70.80437129287643 75.67580015310926 0  66.06902193673014 80.67960752263491 0  61.47334718684866 85.81199441168215 0  57.02083692524275 91.0690633672404 0  52.71487232786438 96.44682224262129 0  48.55872328070024 101.941187247437 0  44.55554591578033 107.5479860232332 0  40.7083801742321 113.2629608675606 0  37.02014754791168 119.0817718975441 0  33.49364883372994 125.000000381329 0  30.13156199866361 131.0131521097709 0  26.9364401549829 137.1166607985551 0  23.91070965524918 143.3058914868915 0  21.05666818346614 149.576144185037 0  18.37648306853811 155.9226573275967 0  15.8721895918909 162.3406114925245 0  13.54568948170046 168.8251329701392 0  11.39874945301878 175.3712974960928 0  9.432999857087736 181.9741340206533 0  7.649933466342702 188.6286284076045 0  6.050904301250966 195.3297273853278 0  4.637126656808988 202.0723421730917 0  3.409674127767772 208.8513525589684 0  2.369478824521138 215.6616106615248 0  1.517330660909465 222.4979448382452 0  0.8538767414496533 229.355163714981 0  0.3796208887135322 236.2280599646376 0  0.09492324266324204 243.1114144478261 0  0.0949232442452228 256.8885856095658 0  0.3796208935834784 263.7719401236316 0  0.8538767530323526 270.6448364248016 0  1.517330679476544 277.5020553295092 0  2.369478854618649 284.3383895555228 0  3.409674170191892 291.1486476952655 0  4.6371267162381 297.9276581311522 0  6.050904381420935 304.6702729724059 0  7.649933562385399 311.3713719716595 0  9.43299997979841 318.0258664133013 0  11.3987495994252 324.6287029719946 0  13.54568965885832 331.174867545904 0  15.87218979367188 337.6593890464085 0  18.37648329843151 344.0773432384132 0  21.05666844777872 350.423856417535 0  23.91070995156048 356.6941091410045 0  26.93644048988043 362.8833398632205 0  30.13156235982007 368.9868485575877 0  33.49364924138357 375.0000003247478 0  37.0201480006036 380.9182288389023 0  40.70838066758398 386.7370398875706 0  44.55554644477201 392.4520147396792 0  48.55872386086904 398.0588135419111 0  52.71487295981296 403.5531785693063 0  57.02083760525949 408.9309374584583 0  61.47334790862246 414.1880064170849 0  66.06902271205095 419.320393319588 0  70.80437211216579 424.3242006890749 0  75.67580013809859 429.195628692521 0  80.6796075127923 433.930978054209 0  85.81199439754931 438.5266528008431 0  91.06906334717917 442.9791630582355 0  96.44682221438322 447.2851276501571 0  101.9411872243843 451.441276702356 0  107.5479859945825 455.4444540643537 0  113.2629608446994 459.2916198108319 0  119.0817718768376 462.9798524393601 0  125.0000003647644 466.5063511567065 0  131.0131521012763 469.8684379967393 0  137.1166607840049 473.0635598376539 0  143.3058914748804 476.0892903390826 0  149.5761441732679 478.9433318113714 0  155.9226573130112 481.6235169255377 0  162.3406114779862 484.1278104026658 0  168.8251329570439 486.4543105138039 0  175.3712974805475 488.601250542119 0  181.9741340135204 490.5670001408953 0  188.6286284005059 492.3500665318597 0  195.3297273788229 493.9490956972913 0  202.0723421640089 495.3628733414168 0  208.8513525529672 496.5903258712308 0  215.6616106544547 497.6305211744985 0  222.4979448327038 498.4826693384772 0  229.3551637102845 499.1461232581612 0  236.2280599621369 499.6203791111485 0  243.1114144470173 499.9050767573145 0  155.2373389820306 474.8197567317462 0  25.36256300907667 153.9152755065208 0  432.3709625126712 412.6214396304305 0  6.013151705810699 246.637913163471 0  246.6379131630491 493.986848294322 0  338.6995838441862 22.68244767887072 0  477.3175523131281 338.6995838660569 0  493.9868482700757 246.6379131399102 0  246.6201155078769 6.218451882810491 0  417.6179310263282 72.7156044707053 0  102.2232990934413 445.0100869616822 0  63.66330858966404 92.20354579482142 0  391.3105220491464 50.73522820883105 0  72.79295043967942 418.0702734974704 0  448.290574428537 108.25674339002 0  402.4604651193511 440.7462829841712 0  97.55317348421397 59.11376320116034 0  136.7376477664901 33.58246472647134 0  363.3288394375288 465.6947312928271 0  44.0678766556007 381.0860953771871 0  469.6905266180034 142.3890690100806 0  22.68244791668644 338.6995843487432 0  338.699584349159 477.317552078365 0  173.389488083762 18.6681884918202 0  483.4809734778481 179.7121987795732 0  13.50237455842738 306.4709525540879 0  305.9825168523021 487.24416992
[...]
<PointData  Vectors="f_12"> 
<DataArray  type="Float64"  Name="f_12"  NumberOfComponents="3" format="ascii">6.4149918553483043e-01 4.5909118593892684e-01 7.7213516888640532e-01  4.6533704132860432e-01 1.9608770612110940e-01 2.3401838768287292e-01  6.5068906241208802e-01 5.6982320938281572e-01 6.6346106384898873e-01  4.6942288167377089e-01 2.9741780314895350e-01 1.9158510013784394e-01  6.5073403364873694e-01 5.7146730103854004e-01 6.6158216576157236e-01  6.5077167313066853e-01 5.7295123031509243e-01 6.5987928602788493e-01  6.5080550125779713e-01 5.7437566628038639e-01 6.5823890367559168e-01  6.5083399907529915e-01 5.7566344615907006e-01 6.5675103332740969e-01  6.5085843078721728e-01 5.7685043562196769e-01 6.5537541054772863e-01  6.5087929566394176e-01 5.7793346830880066e-01 6.5411667399388163e-01  6.5089699724715322e-01 5.7891467770001703e-01 6.5297349127343729e-01  6.5091202399673165e-01 5.7980283314163528e-01 6.5193635239928327e-01  6.5092454878086936e-01 5.8059080961148035e-01 6.5101423365705369e-01  6.5093477794981569e-01 5.8127362109839709e-01 6.5021383975586022e-01  6.5094205052831922e-01 5.8179357089740025e-01 6.4960329103444459e-01  6.5094977147835642e-01 5.8234366256033598e-01 6.4895679679975293e-01  6.5095329031453231e-01 5.8262591860668511e-01 6.4862446129853801e-01  6.5095707739527653e-01 5.8291417358572428e-01 6.4828507043160177e-01  6.5095918082428739e-01 5.8307965216298308e-01 6.4809008348925967e-01  6.5096028658023353e-01 5.8315789917848582e-01 6.4799789592436929e-01  6.5096059726404576e-01 5.8315965073717813e-01 6.4799572216422130e-01  6.5095872039671621e-01 5.8300287014102892e-01 6.4818040217685569e-01  6.5095543385895671e-01 5.8273901161925823e-01 6.4849121026139467e-01  6.5095198208695282e-01 5.8244744127449133e-01 6.4883435143721646e-01  6.5094699525998934e-01 5.8204784819555710e-01 6.4930436717086171e-01  6.5093963680823363e-01 5.8150759985227485e-01 6.4993890038623714e-01  6.5092953590659830e-01 5.8081442205164524e-01 6.5075181388851899e-01  6.5091876253415770e-01 5.8009862278968050e-01 6.5158995508347028e-01  6.5090573620860093e-01 5.7928528845854221e-01 6.5254045074905265e-01  6.5088836637711478e-01 5.7828683617068932e-01 6.5370465589555293e-01  6.5086900279480109e-01 5.7723944880206091e-01 6.5492303566756049e-01  6.5084547000736992e-01 5.7606148082763953e-01 6.5628927887031374e-01  6.5081765603301445e-01 5.7476372901319972e-01 6.5779020969954949e-01  6.5078614758514353e-01 5.7338982394977556e-01 6.5937393129474176e-01  6.5074702809469509e-01 5.7181861397004685e-01 6.6117816166422494e-01  6.5070227378554180e-01 5.7014379456740694e-01 6.6309412398823775e-01  6.5065284622253650e-01 5.6841020053556457e-01 6.6506883312950282e-01  6.5059323564725524e-01 5.6647685658088009e-01 6.6726073995034840e-01  6.5052168259832832e-01 5.6433098231705980e-01 6.6968130992131036e-01  6.5044195119375436e-01 5.6209687978675615e-01 6.7218771176652847e-01  6.5035376676345413e-01 5.5978320448097996e-01 6.7476847756243086e-01  6.5024998676377999e-01 5.5724784187279708e-01 6.7757884992051653e-01  6.5012889901240556e-01 5.5448326666011249e-01 6.8062285651655685e-01  6.4999308704434300e-01 5.5158533582827496e-01 6.8379044573079517e-01  6.4983667152542246e-01 5.4846676333530564e-01 6.8717246890270456e-01  6.4965936877280528e-01 5.4514805709646219e-01 6.9074129941394335e-01  6.4945916437131967e-01 5.4163192115167169e-01 6.9448831262813415e-01  6.4923429534701216e-01 5.3792000158696096e-01 6.9840710516611770e-01  6.4897174708664562e-01 5.3385669761023946e-01 7.0264947094416630e-01  6.4867866805642749e-01 5.2958006643498834e-01 7.0706593904083193e-01  6.4834743910751835e-01 5.2503877458032588e-01 7.1169646405104048e-01  6.4797364350425790e-01 5.2019582853739466e-01 7.1657147810541733e-01  6.4755400489036385e-01 5.1507065277483122e-01 7.2165556846972223e-01  6.4707343031965847e-01 5.0952862074330507e-01 7.2706874497954799e-01  6.4653424090345279e-01 5.0365236585639483e-01 7.3271016852836479e-01  6.4593163611421289e-01 4.9744061590135702e-01 7.3856414073072862e-01  6.4524715592599968e-01 4.9076507199984998e-01 7.4472701690354492e-01  6.4447920092572419e-01 4.8366798373901454e-01 7.5113620897978695e-01  6.4362296804229224e-01 4.7615419592936964e-01 7.5774932164241859e-01  6.4268218318239567e-01 4.6828556545002159e-01 7.6452985887063918e-01  6.4029868991390737e-01 4.5008091263831318e-01 7.7936517792442028e-01  6.3891982104019973e-01 4.4030801344772136e-01 7.8690776137199403e-01  6.3737090212857184e-01 4.2988127151528949e-01 7.9462515584343807e-01  6.3559243258201759e-01 4.1861157090470563e-01 8.0252249243418927e-01  6.3369162503967591e-01 4.0706544396737737e-01 8.1023520892965695e-01  6.3206969828294735e-01 3.9720146217536179e-01 8.1656383026697166e-01  6.2985521835377611e-01 3.8017406099850348e-01 8.2456314738505299e-01  6.0320430898999811e-01 2.6407302530678262e-01 8.7310288651634715e-01  5.2354024936619925e-01 1.1389950805290681e-01 6.4718699059896201e-01  4.7411316644435209e-01 1.4626090203723016e-01 3.2755718463104266e-01  5.0637901587050704e-01 4.3815913842805060e-01 3.2301461357586225e-01  5.7504089009780479e-01 5.6655286367905966e-01 5.1943719330842941e-01  5.8081011925228732e-01 4.1844182080776388e-01 7.0195010801891033e-01  5.2329354827123264e-01 3.3010011609147222e-01 5.1595341334394385e-01  4.7383389053956682e-01 2.4434777306357558e-01 2.6025226727836531e-01  4.6826566086619759e-01 1.1622672437609491e-01 2.9820193485278401e-01  4.9327542373116295e-01 8.3906494601433582e-02 4.7325906103313220e-01  5.1241612936261627e-01 8.7499183277051223e-02 5.8498889662371345e-01  5.0120936635605395e-01 8.4047765134420069e-02 5.2012427474368650e-01  4.8204005113961579e-01 8.3201614291336518e-02 4.0191389736586908e-01  4.6885036454319196e-01 9.6220693617280986e-02 3.1126528195101938e-01  4.6651316902355050e-01 1.1924462861648025e-01 2.8756544854915733e-01  4.9526096616093385e-01 1.4940168155997718e-01 4.7238326550204757e-01  5.6296161896081043e-01 3.0096704427564264e-01 7.4398116171502326e-01  5.6961633870561323e-01 5.7077055309004376e-01 4.9415320858153450e-01  4.9521994636718558e-01 4.2540681861789770e-01 2.6632380915179749e-01  4.6615200282494657e-01 1.4390068602506068e-01 2.6853334948538848e-01  4.7776322903240653e-01 7.9159100359411969e-02 3.7981833726799014e-01  4.7327065081235054e-01 8.7537379728273745e-02 3.4659226083501077e-01  4.6425355019679260e-01 1.8282885784752911e-01 2.3485553624878056e-01  4.8663201034496589e-01 4.2790822390478883e-01 2.0972091048519942e-01  5.3080552549788618e-01 6.6318647709162393e-01 2.4087187886009095e-01  5.7611737979041822e-01 7.5160571360339579e-01 3.0437114514568336e-01  6.1489465324358206e-01 7.3179082309375232e-01 4.1066215233671083e-01  6.3822946893603494e-01 6.3972645886851565e-01 5.6391962560779341e-01  6.3837399549305296e-01 4.9762929136717460e-01 7.3386222589753869e-01  6.1348837538443635e-01 3.2658868961968351e-01 8.5074021934386723e-01  5.7022744526797986e-01 1.7804580373976250e-01 8.2508851781146164e-01  5.2722375718765568e-01 1.0266738706129472e-01 6.6941006281757731e-01  4.9817176572035377e-01 8.1713589910686737e-02 5.0986029966792035e-01  4.8093485940509245e-01 8.2374256814185781e-02 4.0038149296302450e-01  4.7383377990919151e-01 8.4906400136584112e-02 3.5345789073320966e-01  4.7229346824278778e-01 8.6003208381737167e-02 3.4280184501478694e-01  4.7636894400138563e-01 8.2470425789907389e-02 3.7106677577359276e-01  4.8843171810416747e-01 8.0334640570662946e-02 4.4963076692082621e-01  5.1292421297211388e-01 9.0706973753705858e-02 5.9434837782008998e-01  5.5284634284664436e-01 1.4192796591207443e-01 7.7497985163102245e-01  5.9964358462219725e-01 2.7152147362984747e-01 8.5984600231899788e-01  6.3178327290837344e-01 4.5294467930416121e-01 7.7097009688350682e-01  6.3452035154328112e-01 6.1695784085918770e-01 5.8935852308576009e-01  6.0395484471259453e-01 7.2095739737152165e-01 4.0641506824242141e-01  5.4597391209950952e-01 6.9583455496834157e-01 2.7251584807229606e-01  4.9009290639209685e-01 4.6414671827374626e-01 2.0336510768287253e-01  4.6295170730390955e-01 2.1301285366248759e-01 2.0780197647931820e-01  4.5879437509346482e-01 1.1633448682931009e-01 2.3762254893278262e-01  4.5987541525860237e-01 1.4795028996962567e-01 2.2611182484826836e-01  4.9695469856850011e-01 5.0857322168016206e-01 2.0114081692074839e-01  5.3200049774368785e-01 6.7887715448464958e-01 2.3053294819325815e-01  5.5187492110767766e-01 6.7075677791622212e-01 3.1664408732254168e-01  5.1440643995951041e-01 4.3723947854125061e-01 3.7347870623537666e-01  4.8180568898655396e-01 1.6620708559049990e-01 3.6938187276599443e-01  5.2353818462618062e-01 1.4568874680306798e-01 6.5307180531603948e-01  5.9704866261580947e-01 4.0385640935137262e-01 7.6500445975634279e-01  5.8262379291679167e-01 6.7169144998197983e-01 4.1734935672045548e-01  5.1413713262657568e-01 6.0566551104275035e-01 2.1949652447066792e-01  4.7187394878820865e-01 3.6513571929155220e-01 1.6610938449892651e-01  4.6173582555517911e-01 2.5292592198720787e-01 1.7312071326260658e-01  4.5945010058019081e-01 1.7227984448154351e-01 2.0882425641757546e-01  4.7488108172184579e-01 1.1322468150786161e-01 3.4547731059481734e-01  5.2574865043921370e-01 1.1192858917285887e-01 6.5271621011630665e-01  5.5991675837648214e-01 1.4740193821550424e-01 7.9662612391532117e-01  5.1516413102008463e-01 9.7201203858324564e-02 6.0130273438193327e-01  4.7798679528648264e-01 8.7875406352473914e-02 3.7700457294721462e-01  4.6171962605937972e-01 1.2729524976679715e-01 2.4971331836604257e-01  4.6337571215068707e-01 2.4118831409470989e-01 1.9197932568912240e-01  4.9068039196157803e-01 4.8001084781708642e-01 1.9617868795996374e-01  5.4238293321033104e-01 6.9215022845174523e-01 2.6072294731506296e-01  5.9528432018616717e-01 7.3498315293419603e-01 3.7148762256612972e-01  6.2974802489935588e-01 6.7383480016222796e-01 5.0979779319974716e-01  6.4147034133343073e-01 5.6921473753831098e-01 6.5412192266244185e-01  6.3448039284824098e-01 4.4766333833028088e-01 7.7577848467404831e-01  6.1598895447214730e-01 3.3174708209707005e-01 8.4732532677649153e-01  5.9414312060210472e-01 2.4241412772884502e-01 8.6023728425608137e-01  5.7670920204107756e-01 1.8968864473296010e-01 8.3865356891235887e-01  5.6768086981519528e-01 1.6774686633060609e-01 8.1771789004263762e-01  5.6845979191046536e-01 1.6982214103309787e-01 8.1902802392656504e-01  5.7843601762210695e-01 1.9549517490033838e-01 8.4023879215787223e-01  5.9678328766688271e-01 2.5182450260016931e-01 8.6023779882443208e-01  6.1808845502018950e-01 3.3876885032696163e-01 8.4679225293257365e-01  6.3792374162603260e-01 4.5524420320313697e-01 7.7787590695762021e-01  6.4515617629461497e-01 5.7104021143994832e-01 6.5459713276672304e-01  6.3869585648010774e-01 6.6581244525982564e-01 5.3103639584777595e-01  6.1760400816455296e-01 7.3177473207642207e-01 4.1513343590327106e-01  5.8467532231804642e-01 7.5412163622700068e-01 3.2267914623453603e-01  5.4390783797873865e-01 7.0405028441999884e-01 2.5319277736653018e-01  4.9997616449716981e-01 5.2426871755024351e-01 2.1033850338475188e-01  4.6765155310111028e-01 2.6768571825310805e-01 2.0493679549467045e-01  4.6084954664852146e-01 1.2059278584411229e-01 2.4875212842242059e-01  4.6480558904654712e-01 9.2554656676688746e-02 2.8802133038343081e-01  4.6243340959584250e-01 1.1356101780265872e-01 2.5886145938987010e-01  4.5817051937830000e-01 1.4108174002225832e-01 2.1619021702996782e-01  4.5744374526991588e-01 1.8017286021261275e-01 1.9002799422163080e-01  4.7218245979769391e-01 3.3633800548771009e-01 1.8876647039308514e-01  5.3917378021428353e-01 6.1926563207867757e-01 3.1745085575016874e-01  5.9263476381611968e-01 5.0265562804111008e-01 6.4766812557174569e-01  5.4501155701940240e-01 2.2029664525069473e-01 7.2291224066247539e-01  4.8899358207696897e-01 2.1495422114607263e-01 3.8406833952995417e-01  4.6675133289152138e-01 2.4701053962100455e-01 2.0941655845391913e-01  4.5948240649632444e-01 1.7875138338307725e-01 2.0395191168803020e-01  4.6254210498132575e-01 1.1713674977361527e-01 2.5820998193114841e-01  4.6822891705138481e-01 9.0006560530668495e-02 3.1080617243094621e-01  4.6469280894589682e-01 1.0644424902907333e-01 2.7959049386399354e-01  5.0030632724576130e-01 2.9475410264381424e-01 4.0133371013210584e-01  5.6007626538140332e-01 3.4050997661558569e-01 6.9759970563574958e-01  5.8274315214979655e-01 5.3754495444491168e-01 5.7750281222184252e-01  5.2297723274242824e-01 5.1970439701078741e-01 3.4220937574638549e-01  4.7203662704724342e-01 2.0356565658655307e-01 2.7928516604681014e-01  4.9550286871442534e-01 9.4971285617198142e-02 4.8841179771869525e-01  5.6430936645674890e-01 1.6000826934082746e-01 8.1065744432860920e-01  6.0422582049265960e-01 2.6738896245907756e-01 8.6183518032421014e-01  6.1008489196010451e-01 2.9503900058988325e-01 8.5550107971069800e-01  6.1235848449772645e-01 3.0392397771314178e-01 8.5518877572947738e-01  6.1511192831334627e-01 3.1547186515784209e-01 8.5220632069669255e-01  6.1781437170112974e-01 3.2697166532243338e-01 8.4905107041296146e-01  6.2035313471793552e-01 3.3828320632158010e-01 8.4520750549456469e-01  6.2268765664690939e-01 3.4911267286631809e-01 8.4100546774605289e-01  6.2483194367770212e-01 3.5944179156631662e-01 8.3650755924933107e-01  6.2684352972051083e-01 3.6950121982782996e-01 8.3169444933892822e-01  6.2870303846611086e-01 3.7914810813651834e-01 8.2669666068815573e-01  6.3040432468468988e-01 3.8830319062886387e-01 8.2160441740524914e-01  6.3199103995051342e-01 3.9715297551183082e-01 8.1638997873577390e-01  6.3346605723961336e-01 4.0567469001042833e-01 8.1108829159683171e-01  6.3483572560494517e-01 4.1387500353573309e-01 8.0574324881202397e-01  6.3610539910545316e-01 4.2175340611646145e-01 8.0038428908385095e-01  6.3728788977095552e-01 4.2935525155352011e-01 7.9501039198945600e-01  6.3838891808185905e-01 4.3669287500871634e-01 7.8963845233617713e-01  6.3940384012734219e-01 4.4370400351191580e-01 7.8433980737531828e-01  6.4034884035778239e-01 4.5047542036740967e-01 7.7906805859359685e-01  6.4123204842295056e-01 4.5703532861392582e-01 7.7382434086033547e-01  6.4204152160986694e-01 4.6327937195415098e-01 7.6870381134841115e-01  6.4279923832155039e-01 4.6934768479592381e-01 7.6361218324212787e-01  6.4350270970359913e-01 4.7519805294520340e-01 7.5859429229195630e-01  6.4415302315320577e-01 4.8081984607601858e-01 7.5367514016756731e-01  6.4475543001193103e-01 4.8623800084655328e-01 7.4884295574162429e-01  6.4531296385936943e-01 4.9145700257884017e-01 7.4410509502100430e-01  6.4582999275219399e-01 4.9649959297007096e-01 7.3945030424714620e-01  6.4631120636902450e-01 5.0139268409308346e-01 7.3486155732571379e-01  6.4674957647507381e-01 5.0604346385589527e-01 7.3043517395721624e-01  6.4715208729966833e-01 5.1050521086265910e-01 7.2612901528070761e-01  6.4753063899826180e-01 5.1488949730079292e-01 7.2184126959635964e-01  6.4787475829085539e-01 5.1906192406579443e-01 7.1770933893380473e-01  6.4818759183893748e-01 5.2303957666797229e-01 7.1372350682786123e-01  6.4847667146907761e-01 5.2689167284946858e-01 7.0982020838520765e-01  6.4874072467969457e-01 5.3058462224861203e-01 7.0603809192978995e-01  6.4898334806115343e-01 5.3415417866412329e-01 7.0234578377809731e-01  6.4920168609376039e-01 5.3753206190165026e-01 6.9881768215808271e-01  6.4940203875749691e-01 5.4080115914337124e-01 6.9537290423846909e-01  6.4958275234715679e-01 5.4391385591345698e-01 6.9206456107377945e-01  6.4974745459872840e-01 5.4690881416824233e-01 6.8885485678298830e-01  6.4989778158976552e-01 5.4979785943208981e-01 6.8573493331967794e-01  6.5003033134328148e-01 5.5250599747914197e-01 6.8278965806516156e-01  6.5014875160915753e-01 5.5507511874031579e-01 6.7997545222347022e-01  6.5025714251437106e-01 5.5756782018585083e-01 6.7722754968424892e-01  6.5035257805231761e-01 5.5990710290407220e-01 6.7463259457505065e-01  6.5043660718303142e-01 5.6210577988977783e-01 6.7217980401411059e-01  6.5051174700743664e-01 5.6420113035846009e-01 6.6982898625047305e-01  6.5057864564710732e-01 5.6618944533082827e-01 6.6758745853146118e-01  6.5063666111945950e-01 5.6803809199941591e-01 6.6549274337972086e-01  6.4882731868834043e-01 5.3185456396976027e-01 7.0472837822956025e-01  4.6140869866232070e-01 1.1975832920753843e-01 2.5238878635273682e-01  6.5074843090334056e-01 5.7192129676281722e-01 6.6106066807321573e-01  4.6263230831871716e-01 1.4275956381697352e-01 2.4698353214017277e-01  6.5064532817469878e-01 5.6835884738037745e-01 6.6512835506828405e-01  4.6789822873481657e-01 1.2442589723241811e-01 2.9156389808670957e-01  6.4929228800041938e-01 5.3889917697674006e-01 6.9737613690774458e-01  6.4077658391512304e-01 4.5358933312531646e-01 7.7660202649562926e-01  4.8022220937125337e-01 4.0997760703880548e-01 1.8552569792644069e-01  4.6622098203151796e-01 1.4782050524403226e-01 2.6659859930041724e-01  6.4550230349663917e-01 4.9329116055667205e-01 7.4241998017668187e-01  5.4789520601659325e-01 1.4450757211373697e-01 7.5062277230978658e-01  6.3421711643598977e-01 6.3627660768456629e-01 5.6791973782810434e-01  6.4158149916786344e-01 4.5971254146338575e-01 7.7164411686057277e-01  4.7646388076689011e-01 1.3401522692986570e-01 3.4999813190794443e-01  6.5090206986908372e-01 5.7915461768458643e-01 6.5269271201403856e-01  6.2321912499221588e-01 4.0949866693431031e-01 8.0441782727144573e-01  4.6562672909627595e-01 1.1455192649765179e-01 2.8165170802113815e-01  6.5095079897072716e-01 5.8246494337217936e-01 6.4881412966522234e-01  6.3412038402413673e-01 4.0956687438013334e-01 8.0857914582678025e-01  4.7960583240213828e-01 9.1834507147408914e-02 3.8320613810754095e-01  6.2132555374981624e-01 3.4274060085366265e-01 8.4356854528253655e-01  6.5094714169727086e-01 5.8223105534087771e-01 6.4908879768788852e-01  4.6169499193980568e-01 2.2572637002933096e-01 1.9092835722576190e-01  4.9046213951094697e-01 3.4712522474236135e-01 3.0351413023426571e-01  6.0233550511174849e-01 2.6432757834521253e-01 8.5930886401529805e-01  6.5090604150876408e-01 5.7951356432470835e-01 6.5227406083178652e-01  6.4993734921695812e-01 5.5061127470448279e-01 6.8485304395365321e-01  5.7633345117475443e-01 6.0361202982675699e-01 4.7415796135916038e-01  6.2879881321174624e-01 4.7227429179438185e-01 7.5076542381778777e-01  6.4722939712664640e-01 5.1131822181232778e-01 7.2533178411834209e-01  6.5038810151958470e-01 5.6071372280703113e-01 6.7373166320158007e-01  5.7256102249121454e-01 2.6826606622062948e-01 8.0626686392173441e-01  6.2928564716287461e-01 3.7922061943840618e-01 8.2627509411057631e-01  4.9883694090137259e-01 4.0947676595449245e-01 3.0454598297275548e-01  6.5083357882412429e-01 5.7569891959270636e-01 6.5670961988654963e-01  5.2434552559898284e-01 1.1218484143742739e-01 6.4712993625806647e-01  6.1240300177068629e-01 7.1540416465185797e-01 4.2964999298599194e-01  6.5037431115289579e-01 5.6049152954087811e-01 6.7398189192586033e-01  6.4764548711179226e-01 5.1626797328915675e-01 7.2048399471750013e-01  4.6047474804323563e-01 2.0113726141986318e-01 1.9719291876352679e-01  4.8136981540854701e-01 3.8638595739717874e-01 2.0802842863656934e-01  6.4483164382802005e-01 4.8691103049906337e-01 7.4822416945212189e-01  6.5092966621427606e-01 5.8094617395043646e-01 6.5059715308836297e-01  6.4843635503838015e-01 5.2626621538939267e-01 7.1045143728657756e-01  5.3542842732439588e-01 5.5531286223079590e-01 3.7128487069814425e-01  5.0787598415498558e-01 9.8054598430603893e-02 5.6088677920684826e-01  6.3622424620786755e-01 4.2257560330882254e-01 7.9979377317826861e-01  4.7092110338547594e-01 2.3873443210854783e-01 2.4565206677103954e-01  6.4946243729322328e-01 5.4184636400166086e-01 6.9426411980003200e-01  6.5059481486030801e-01 5.6658401469474684e-01 6.6714001942544776e-01  6.3883508538777445e-01 4.3975365166363256e-01 7.8734655503466566e-01  5.8487056346718569e-01 7.1253181931107012e-01 3.7401419082935361e-01  6.2952498562462023e-01 3.8353420968559770e-01 8.2430440207931865e-01  4.5765879153346711e-01 1.5495675257578759e-01 2.0560928204594936e-01  6.5002386755507269e-01 5.5226429960681223e-01 6.8305040966787200e-01  6.4375337240