<?xml version="1.0"?>
<VTKFile type="UnstructuredGrid"  version="0.1"  >
<UnstructuredGrid>
<Piece  NumberOfPoints="4940" NumberOfCells="9650">
<Points>
<DataArray  type="Float64"  NumberOfComponents="3"  format="ascii">500 250 0  0 250 0  250 500 0  250 0 0  256.8885856082646 499.9050767557906 0  263.7719401218049 499.6203791065173 0  270.6448364229772 499.1461232471188 0  277.5020553257866 498.4826693209355 0  284.3383895508592 497.6305211460281 0  291.1486476865662 496.5903258312597 0  297.9276581259182 495.3628732847843 0  304.6702729675493 493.9490956196674 0  311.3713719748657 492.3500664368026 0  318.0258664141369 490.5670000199653 0  324.6287029687753 488.6012504015818 0  331.1748675330201 486.4543103455647 0  337.6593890460416 484.1278102064655 0  344.0773432429536 481.6235166997244 0  350.4238564271474 478.9433315480048 0  356.694109139292 476.0892900492477 0  362.88333985546 473.0635595140469 0  368.9868485575419 469.8684376402048 0  375.0000003153078 466.5063507640667 0  380.9182288257928 462.9798520074548 0  386.7370398729688 459.2916193419558 0  392.4520147244077 455.444453565817 0  398.0588135356345 451.4412761437442 0  403.5531785622926 447.285127045646 0  408.9309374414144 442.9791624087773 0  414.1880064015299 438.5266521049243 0  419.3203932989752 433.9309773069245 0  424.324200661095 429.1956279150535 0  429.1956286596235 424.3241998957182 0  433.9309780058756 419.3203925397119 0  438.5266527445345 414.1880056671062 0  442.9791630130591 408.9309367076756 0  447.2851276060475 403.5531778422888 0  451.4412766621026 398.0588128303826 0  455.4444540361634 392.4520140460735 0  459.2916197786263 386.7370392045948 0  462.9798524073514 380.9182281752347 0  466.5063511234856 374.9999996927758 0  469.8684379657123 368.9868479560565 0  473.0635598144817 362.8833392617846 0  476.0892903190255 356.6941085676214 0  478.9433317963513 350.4238558609745 0  481.6235169154735 344.0773427117675 0  484.12781039012 337.6593885555221 0  486.4543105028062 331.1748670749914 0  488.601250531677 324.6287025528375 0  490.5670001317469 318.0258660188321 0  492.3500665291326 311.3713716102628 0  493.949095695951 304.6702726271575 0  495.3628733416623 297.9276578347343 0  496.5903258712341 291.1486474470129 0  497.6305211749058 284.3383893426084 0  498.4826693388848 277.502055163614 0  499.1461232580606 270.6448362909296 0  499.6203791109319 263.7719400417897 0  499.9050767571306 256.8885855596534 0  499.9050767559877 243.1114143988867 0  499.6203791069493 236.2280598860241 0  499.1461232485393 229.3551635941651 0  498.4826693235677 222.4979446979962 0  497.6305211491849 215.6616104719064 0  496.5903258357701 208.8513523404629 0  495.3628732906988 202.0723419043604 0  493.9490956264813 195.3297270628552 0  492.3500664487791 188.6286280724281 0  490.5670000344809 181.9741336371959 0  488.6012504175981 175.3712970824318 0  486.4543103623226 168.8251325157939 0  484.1278102222298 162.3406109960628 0  481.6235167152198 155.9226567951971 0  478.9433315621651 149.5761436051346 0  476.0892900516498 143.3058908657982 0  473.063559513628 137.1166601437124 0  469.8684376406648 131.0131514433083 0  466.5063507675389 124.9999996907064 0  462.9798520124137 119.0817711822745 0  459.2916193464549 113.2629601339176 0  455.4444535642773 107.5479852733717 0  451.4412761528674 101.9411864767781 0  447.2851270583545 96.44682145403524 0  442.9791624165781 91.06906256805769 0  438.5266521117469 85.81199360630404 0  433.9309773156125 80.67960671046254 0  429.1956279150353 75.67579933888632 0  424.3241998888952 70.80437133373906 0  419.3203925223282 66.06902197812161 0  414.1880056411937 61.47334723289828 0  408.9309366751728 57.0208369601728 0  403.5531778009394 52.71487236176898 0  398.058812796452 48.55872331295853 0  392.4520140187753 44.55554594490843 0  386.7370391799677 40.70838020528396 0  380.9182281475119 37.02014757560744 0  374.9999996718656 33.49364886444181 0  368.9868479340393 30.13156202237255 0  362.8833392380029 26.93644017348339 0  356.6941085456942 23.91070967062674 0  350.4238558420009 21.0566681953261 0  344.0773426899492 18.37648307566465 0  337.6593885328982 15.87218960140942 0  331.1748670549786 13.54568949032341 0  324.6287025315056 11.39874946165088 0  318.0258660010876 9.432999863235466 0  311.3713716017894 7.649933468721599 0  304.6702726190621 6.050904302234756 0  297.9276578269805 4.637126656823085 0  291.148647441857 3.409674127905504 0  284.3383893425031 2.369478825079682 0  277.502055159398 1.517330660648639 0  270.6448362875833 0.853876741662134 0  263.7719400401456 0.3796208889774277 0  256.8885855592052 0.09492324285704967 0  243.1114143979462 0.09492324403817065 0  236.2280598850882 0.3796208931023841 0  229.3551635938215 0.8538767514891958 0  222.4979446968584 1.517330676558146 0  215.6616104703111 2.369478851036291 0  208.8513523382973 3.409674164591252 0  202.0723419066374 4.637126708856528 0  195.3297270659513 6.050904372824903 0  188.628628074828 7.649933550613184 0  181.9741336377093 9.432999965373938 0  175.3712970793675 11.39874958336037 0  168.8251325057572 13.54568964112298 0  162.340610986655 15.87218978129263 0  155.9226567874317 18.37648328793418 0  149.576143602509 21.05666843898663 0  143.3058908718157 23.91070994551046 0  137.1166601505524 26.93644048291054 0  131.0131514451933 30.13156235831508 0  124.9999996848412 33.49364923584736 0  119.0817711715717 37.0201479941652 0  113.2629601211624 40.70838066187849 0  107.5479852622251 44.55554644345162 0  101.9411864693332 48.55872385260452 0  96.44682143286516 52.71487295812284 0  91.06906254351222 57.02083760363669 0  85.81199358272519 61.4733479087879 0  80.67960667988106 66.06902271253972 0  75.67579930062769 70.80437212218331 0  70.80437129287643 75.67580015310926 0  66.06902193673014 80.67960752263491 0  61.47334718684866 85.81199441168215 0  57.02083692524275 91.0690633672404 0  52.71487232786438 96.44682224262129 0  48.55872328070024 101.941187247437 0  44.55554591578033 107.5479860232332 0  40.7083801742321 113.2629608675606 0  37.02014754791168 119.0817718975441 0  33.49364883372994 125.000000381329 0  30.13156199866361 131.0131521097709 0  26.9364401549829 137.1166607985551 0  23.91070965524918 143.3058914868915 0  21.05666818346614 149.576144185037 0  18.37648306853811 155.9226573275967 0  15.8721895918909 162.3406114925245 0  13.54568948170046 168.8251329701392 0  11.39874945301878 175.3712974960928 0  9.432999857087736 181.9741340206533 0  7.649933466342702 188.6286284076045 0  6.050904301250966 195.3297273853278 0  4.637126656808988 202.0723421730917 0  3.409674127767772 208.8513525589684 0  2.369478824521138 215.6616106615248 0  1.517330660909465 222.4979448382452 0  0.8538767414496533 229.355163714981 0  0.3796208887135322 236.2280599646376 0  0.09492324266324204 243.1114144478261 0  0.0949232442452228 256.8885856095658 0  0.3796208935834784 263.7719401236316 0  0.8538767530323526 270.6448364248016 0  1.517330679476544 277.5020553295092 0  2.369478854618649 284.3383895555228 0  3.409674170191892 291.1486476952655 0  4.6371267162381 297.9276581311522 0  6.050904381420935 304.6702729724059 0  7.649933562385399 311.3713719716595 0  9.43299997979841 318.0258664133013 0  11.3987495994252 324.6287029719946 0  13.54568965885832 331.174867545904 0  15.87218979367188 337.6593890464085 0  18.37648329843151 344.0773432384132 0  21.05666844777872 350.423856417535 0  23.91070995156048 356.6941091410045 0  26.93644048988043 362.8833398632205 0  30.13156235982007 368.9868485575877 0  33.49364924138357 375.0000003247478 0  37.0201480006036 380.9182288389023 0  40.70838066758398 386.7370398875706 0  44.55554644477201 392.4520147396792 0  48.55872386086904 398.0588135419111 0  52.71487295981296 403.5531785693063 0  57.02083760525949 408.9309374584583 0  61.47334790862246 414.1880064170849 0  66.06902271205095 419.320393319588 0  70.80437211216579 424.3242006890749 0  75.67580013809859 429.195628692521 0  80.6796075127923 433.930978054209 0  85.81199439754931 438.5266528008431 0  91.06906334717917 442.9791630582355 0  96.44682221438322 447.2851276501571 0  101.9411872243843 451.441276702356 0  107.5479859945825 455.4444540643537 0  113.2629608446994 459.2916198108319 0  119.0817718768376 462.9798524393601 0  125.0000003647644 466.5063511567065 0  131.0131521012763 469.8684379967393 0  137.1166607840049 473.0635598376539 0  143.3058914748804 476.0892903390826 0  149.5761441732679 478.9433318113714 0  155.9226573130112 481.6235169255377 0  162.3406114779862 484.1278104026658 0  168.8251329570439 486.4543105138039 0  175.3712974805475 488.601250542119 0  181.9741340135204 490.5670001408953 0  188.6286284005059 492.3500665318597 0  195.3297273788229 493.9490956972913 0  202.0723421640089 495.3628733414168 0  208.8513525529672 496.5903258712308 0  215.6616106544547 497.6305211744985 0  222.4979448327038 498.4826693384772 0  229.3551637102845 499.1461232581612 0  236.2280599621369 499.6203791111485 0  243.1114144470173 499.9050767573145 0  155.2373389820306 474.8197567317462 0  25.36256300907667 153.9152755065208 0  432.3709625126712 412.6214396304305 0  6.013151705810699 246.637913163471 0  246.6379131630491 493.986848294322 0  338.6995838441862 22.68244767887072 0  477.3175523131281 338.6995838660569 0  493.9868482700757 246.6379131399102 0  246.6201155078769 6.218451882810491 0  417.6179310263282 72.7156044707053 0  102.2232990934413 445.0100869616822 0  63.66330858966404 92.20354579482142 0  391.3105220491464 50.73522820883105 0  72.79295043967942 418.0702734974704 0  448.290574428537 108.25674339002 0  402.4604651193511 440.7462829841712 0  97.55317348421397 59.11376320116034 0  136.7376477664901 33.58246472647134 0  363.3288394375288 465.6947312928271 0  44.0678766556007 381.0860953771871 0  469.6905266180034 142.3890690100806 0  22.68244791668644 338.6995843487432 0  338.699584349159 477.317552078365 0  173.389488083762 18.6681884918202 0  483.4809734778481 179.7121987795732 0  13.50237455842738 306.4709525540879 0  305.9825168523021 487.24416992
[...]
<PointData  Vectors="f_12"> 
<DataArray  type="Float64"  Name="f_12"  NumberOfComponents="3" format="ascii">6.5096826279185793e-01 5.8512473386572428e-01 6.4564299879543163e-01  5.4025640416264609e-01 5.8423097701614291e-01 3.5607660289384524e-01  6.4550865092460308e-01 6.7403839538394394e-01 5.2818518020709870e-01  4.9472909200649950e-01 5.1327126828195679e-01 1.8970312132227640e-01  6.4532016276400272e-01 6.7526312829103907e-01 5.2637387531813018e-01  6.4514652786217208e-01 6.7636680374811298e-01 5.2473575749885049e-01  6.4497735323078864e-01 6.7742343682402217e-01 5.2316271102358192e-01  6.4482195918037855e-01 6.7837728447927603e-01 5.2173855998451923e-01  6.4467665440014865e-01 6.7925462478481458e-01 5.2042502466119234e-01  6.4454250172479322e-01 6.8005369573644603e-01 5.1922572062531025e-01  6.4441964615893010e-01 6.8077624953676075e-01 5.1813886206755944e-01  6.4430740566373257e-01 6.8142887415616415e-01 5.1715517652389986e-01  6.4420700912743389e-01 6.8200666820679789e-01 5.1628263966539933e-01  6.4411940537559442e-01 6.8250616889241300e-01 5.1552713098920611e-01  6.4405212574266280e-01 6.8288601611456123e-01 5.1495164416711148e-01  6.4398139317362724e-01 6.8328570777689801e-01 5.1434584627849878e-01  6.4394463274699998e-01 6.8349017157467440e-01 5.1403527160705176e-01  6.4390768217511662e-01 6.8369717105558769e-01 5.1372101607857146e-01  6.4388677208777689e-01 6.8381381562118193e-01 5.1354379837151143e-01  6.4387760789980275e-01 6.8386582142179830e-01 5.1346488091287079e-01  6.4387890564748629e-01 6.8386096688472309e-01 5.1347246711856742e-01  6.4390078682846008e-01 6.8373979354489300e-01 5.1365660189622697e-01  6.4393676609739003e-01 6.8353950574182776e-01 5.1396083950465532e-01  6.4397694269211547e-01 6.8331735374741687e-01 5.1429830856970493e-01  6.4403122526257450e-01 6.8301519890734341e-01 5.1475691828348735e-01  6.4410334078725684e-01 6.8260911385692036e-01 5.1537225469825176e-01  6.4419461343896034e-01 6.8209019278501826e-01 5.1615735004201491e-01  6.4428875093497184e-01 6.8155239458600803e-01 5.1697001775231333e-01  6.4439468145814283e-01 6.8094119832783884e-01 5.1789194615070400e-01  6.4452253120504843e-01 6.8019286627493825e-01 5.1901817181517129e-01  6.4465548110248860e-01 6.7940572415153766e-01 5.2020030678416407e-01  6.4480274740970811e-01 6.7852001594730005e-01 5.2152689750010506e-01  6.4496261429064861e-01 6.7754331096250142e-01 5.2298595061928699e-01  6.4512952924837441e-01 6.7650696170056079e-01 5.2452964070239061e-01  6.4531632979600262e-01 6.7532177147659511e-01 5.2628892037245634e-01  6.4551182093452664e-01 6.7405565382791555e-01 5.2816202008783764e-01  6.4571074729084887e-01 6.7274110186863922e-01 5.3009987844710682e-01  6.4592688755066752e-01 6.7127360729196250e-01 5.3225425389087622e-01  6.4615998486092086e-01 6.6964259584242503e-01 5.3463803891015316e-01  6.4639660354193751e-01 6.6793914602088700e-01 5.3711653830548289e-01  6.4663518829994560e-01 6.6616879287470465e-01 5.3968033704177554e-01  6.4688778818989279e-01 6.6422504244688840e-01 5.4248067304086600e-01  6.4715348195953049e-01 6.6210131795272886e-01 5.4552382212635986e-01  6.4742146247114685e-01 6.5986691067335712e-01 5.4870699476718832e-01  6.4769737474792333e-01 6.5745526200948801e-01 5.5212141752401156e-01  6.4797799518867194e-01 6.5488061119549112e-01 5.5574332419314365e-01  6.4826049467705826e-01 6.5214274598336330e-01 5.5956855814132067e-01  6.4854243207672380e-01 6.4924083326921989e-01 5.6359456779826811e-01  6.4883116805464358e-01 6.4605430587829049e-01 5.6798003183355794e-01  6.4911494295460137e-01 6.4268628224776714e-01 5.7257904058170450e-01  6.4939224037018539e-01 6.3909286488713768e-01 5.7744226427005474e-01  6.4966317709943733e-01 6.3524495147412208e-01 5.8260418513562573e-01  6.4992103874904328e-01 6.3115145319305632e-01 5.8804179728878647e-01  6.5016740429560771e-01 6.2670494825674683e-01 5.9388825564267000e-01  6.5039310974621178e-01 6.2196425194321514e-01 6.0005296678846765e-01  6.5059247230061445e-01 6.1692264024430199e-01 6.0653303139135706e-01  6.5076238867340719e-01 6.1147334444243684e-01 6.1344962124661029e-01  6.5089463909732925e-01 6.0564205831257190e-01 6.2075343713952369e-01  6.5098352081070410e-01 5.9942719277384893e-01 6.2842624894171151e-01  6.5102603702161355e-01 5.9287615452352183e-01 6.3641184821277841e-01  6.5085471733732414e-01 5.7741356045283765e-01 6.5472348277083392e-01  6.5063155182761279e-01 5.6946321007265754e-01 6.6376975681832173e-01  6.5053379802745626e-01 5.6183150213177036e-01 6.7291607924409136e-01  6.5101745224141128e-01 5.5149573608453051e-01 6.8278887305751279e-01  6.4411356508311235e-01 4.7342808019870375e-01 7.6324447877452795e-01  5.8288742228180090e-01 2.2266028247638714e-01 8.5688665764933991e-01  4.9489865566692531e-01 1.0812991309811996e-01 4.8633363645823341e-01  4.8199142069386924e-01 2.6524902181342563e-01 3.0601332756183452e-01  5.4294718808700171e-01 4.8380436432238488e-01 4.7524866077798295e-01  5.9249211279369485e-01 4.0914056947263155e-01 7.3980853583558470e-01  6.1378529076829758e-01 3.6365124587347714e-01 8.2151713108007518e-01  6.0211853193156628e-01 2.8387854159019504e-01 8.5449511476324824e-01  5.5298841667994036e-01 1.6033341692092914e-01 7.7360797546145610e-01  5.3704570450962819e-01 2.0252354360861136e-01 6.8948683709417879e-01  5.5872617493235399e-01 4.9305438294888504e-01 5.3571896412674058e-01  5.1053893405588846e-01 5.0461567792707518e-01 2.8341229554361691e-01  4.6824883776084636e-01 1.9508947931279452e-01 2.5576135469839090e-01  4.8278662462818955e-01 8.9825717589904680e-02 4.0463812078921030e-01  5.0392414241463634e-01 8.1323716685186342e-02 5.3973684517589449e-01  4.9197430610259790e-01 8.2549611899507699e-02 4.6412739740993336e-01  4.7291843318752463e-01 8.9028852762557273e-02 3.4056034641134680e-01  4.6156611703568584e-01 1.2019929532323886e-01 2.5078615626653672e-01  4.6044292474103721e-01 1.9572430131452531e-01 2.0094203151611056e-01  4.7457911364444266e-01 2.8746618147073794e-01 2.3350647269985050e-01  5.0454786233473170e-01 2.6205262951686259e-01 4.5632478286891998e-01  5.5454527062901693e-01 3.3183292733045894e-01 6.8068870474706500e-01  5.5396552599161075e-01 5.5693953101106752e-01 4.4655227035201250e-01  4.8958883334223618e-01 4.6688233799252044e-01 1.9577097836863608e-01  4.7959185368133839e-01 4.2163596002151738e-01 1.7075944996798190e-01  5.1979528742383541e-01 6.2521155172257958e-01 2.2530360353854725e-01  5.6423461608280645e-01 7.4433497814398386e-01 2.7806117496555022e-01  6.0626119483469498e-01 7.4096740186990517e-01 3.8367781444427773e-01  6.3539151764422330e-01 6.4428697418999925e-01 5.5680620968354677e-01  6.3275033562445715e-01 4.6544998604367332e-01 7.6113516958218130e-01  5.9356744568993725e-01 2.5374506786097617e-01 8.5631668112582970e-01  5.3776766292645184e-01 1.1946206587244761e-01 7.1892275492833280e-01  4.9489902201813585e-01 8.4106444396403870e-02 4.8905577279061024e-01  4.7040362128036817e-01 9.4504039015725072e-02 3.2546466499596016e-01  4.5932964081492789e-01 1.2598789357300494e-01 2.3617311624126802e-01  4.5714500314804213e-01 1.7668995054511685e-01 1.9230403436186455e-01  4.6112288178282268e-01 2.4478445622911768e-01 1.7507242298056222e-01  4.6444534863301939e-01 2.8684086010126503e-01 1.6892777680630042e-01  4.6552932150746001e-01 2.9836400993701095e-01 1.6920367821522747e-01  4.6251961230092692e-01 2.6614536442259557e-01 1.7160620258979828e-01  4.5882825285854234e-01 2.0731382981133062e-01 1.8489145581849792e-01  4.5860510230074703e-01 1.4411232356148873e-01 2.2108853655962188e-01  4.6734601372253054e-01 9.9867496676923712e-02 3.0242431493115279e-01  4.9074617587845631e-01 8.4686866140635447e-02 4.6216873617174720e-01  5.3516558829767591e-01 1.1661508630826707e-01 7.0569765686853747e-01  5.9266489664072641e-01 2.4981306146115068e-01 8.5674092000519664e-01  6.3199791595364840e-01 4.5500199374939598e-01 7.7102107413251886e-01  6.3340647854564547e-01 6.2788110062380009e-01 5.7412269908573510e-01  5.9751317973325857e-01 7.1884940496495131e-01 3.9730547960529555e-01  5.3390399574543423e-01 6.5419091271270580e-01 2.6675401456389225e-01  4.7914842062451096e-01 4.1271063446815720e-01 1.7618848433985107e-01  4.6865758841900074e-01 3.4309801850163424e-01 1.5865043385737779e-01  5.3358790689948443e-01 6.8112592484238277e-01 2.3201621262338845e-01  5.6619038453759829e-01 7.5980212855077134e-01 2.6686571043510537e-01  5.9613391612209665e-01 7.6231456176065548e-01 3.3636101738871549e-01  6.0847762801747374e-01 7.4337206861214766e-01 3.8472479502733048e-01  5.8783136554333582e-01 6.8464642522328867e-01 4.2146017812799219e-01  5.2858279177507916e-01 5.1616225588702669e-01 3.8124782208498736e-01  4.8352825669734290e-01 2.2782480823055426e-01 3.3968301981822352e-01  5.1550430700857452e-01 1.4659491322309767e-01 6.0491222660188004e-01  5.9679509674554854e-01 3.7166415991524210e-01 7.9730046627598239e-01  5.9660524915653956e-01 6.6305262916948005e-01 4.6545791575259488e-01  5.2773351357321741e-01 6.3250403916924591e-01 2.5654195137236474e-01  4.7480241158950315e-01 3.6174550915657466e-01 1.8660587575172105e-01  4.6034723399584748e-01 1.8308051151470639e-01 2.0789737315075987e-01  4.6595012837606364e-01 1.0334927361906730e-01 2.8970393692755186e-01  4.7306366532660982e-01 7.8640254063982507e-02 3.5084270064049755e-01  4.6513135347998497e-01 1.1061826407741955e-01 2.8130489131515801e-01  4.6490416279683994e-01 2.3445203324412278e-01 2.0687841109208838e-01  4.9486631247273616e-01 4.9372572508736484e-01 2.0904467023245912e-01  5.5151377801606050e-01 7.0544052379785038e-01 2.8252874130178895e-01  6.0581782488619196e-01 7.2460004198699890e-01 4.0554214383288006e-01  6.3534972419961266e-01 6.3613353731769240e-01 5.6631271675357531e-01  6.3737193064309094e-01 4.9709529708080091e-01 7.3146788763838011e-01  6.1480142410633487e-01 3.3461464913839134e-01 8.4422340666285056e-01  5.7509617371002053e-01 1.9032030066472724e-01 8.3472726172145384e-01  5.3309821191469486e-01 1.1004206701362407e-01 6.9522746463831930e-01  5.0213458593476101e-01 8.3431035874803938e-02 5.3324898200550730e-01  4.8344941553193943e-01 8.0122835892405098e-02 4.1775331761188328e-01  4.7366080947061012e-01 8.4267395951688279e-02 3.5239895114552544e-01  4.6958399933011230e-01 8.8505227489723268e-02 3.2367628315081354e-01  4.6957819550364499e-01 8.8595269325631790e-02 3.2365323161298226e-01  4.7360229880474308e-01 8.4524934441874519e-02 3.5201479177533640e-01  4.8273086481185234e-01 7.9971612919949378e-02 4.1353003594598020e-01  4.9945549970050884e-01 8.2958605127125565e-02 5.1719023540768416e-01  5.2778400728554575e-01 1.0198257767127764e-01 6.7343481728837595e-01  5.6912317696074100e-01 1.7323369891975454e-01 8.2599716034890602e-01  6.1125213115067245e-01 3.1371855183889613e-01 8.5719602424358154e-01  6.3739822828244941e-01 4.8495638605633784e-01 7.4408651396513636e-01  6.3977710815595590e-01 6.2862253838092164e-01 5.8086617141640728e-01  6.2028454091114460e-01 7.2587066324804994e-01 4.2731435730903522e-01  5.8702697517730895e-01 7.6214888567183836e-01 3.1699972872623361e-01  5.5038509035964622e-01 7.2428994091179733e-01 2.5567948865789836e-01  5.0935850194034360e-01 5.7326823530928006e-01 2.1859429232983638e-01  4.7061211881687676e-01 3.0683699642261780e-01 1.9782231280614154e-01  4.5471029726706075e-01 1.5457852426681851e-01 1.9014950088439950e-01  4.6627892789549930e-01 2.5568370369766141e-01 2.0731811552540014e-01  5.3092402513205472e-01 5.5778758432831910e-01 3.4176387497419036e-01  5.8136974979876455e-01 4.5959328250801607e-01 6.5999950789623130e-01  5.3227482245707136e-01 2.1247232827211796e-01 6.6211523562125707e-01  5.0252372042114302e-01 2.8582557720796764e-01 4.2352160868796634e-01  5.0211407355368198e-01 4.7783304975166252e-01 2.5536245091855020e-01  4.8402582952623457e-01 4.3273066228668489e-01 1.8434160053238277e-01  4.6544324070810161e-01 2.8340893358952468e-01 1.7618592267525715e-01  4.5922785737256377e-01 1.7555650530869057e-01 2.0354075495938176e-01  4.5972940528221318e-01 1.1680343082494060e-01 2.4187135144652114e-01  4.5923476950738618e-01 1.3505148609139442e-01 2.2888392644282826e-01  4.7965742499967734e-01 3.4911793611273745e-01 2.2754133199253399e-01  5.4734907678411027e-01 3.4959144118835339e-01 6.2751832267618179e-01  5.1932060032145733e-01 1.3530094044196384e-01 6.2694033599668986e-01  5.5920231576635904e-01 1.6813264835187150e-01 7.9234566677647233e-01  5.9992965053538228e-01 2.9138322489086166e-01 8.4740360286360972e-01  6.0121242827874055e-01 3.9162184404837369e-01 7.7649986771871649e-01  5.6788737630162833e-01 5.1477623530893013e-01 5.5022878818505494e-01  4.9794231446154386e-01 3.8681168749491984e-01 3.1574475179942185e-01  4.7700774264780083e-01 1.3036133862180779e-01 3.5546279993124341e-01  5.3634063114747510e-01 1.2831460229148051e-01 7.1062508735270458e-01  6.1754329869976465e-01 3.2090816375194370e-01 8.6631961649574185e-01  6.4136657036443512e-01 4.4984259061454973e-01 7.7724584930374951e-01  6.4319842090653800e-01 4.7064927700526515e-01 7.6298968819879953e-01  6.4404446690701711e-01 4.7995983403328280e-01 7.5443689367932676e-01  6.4505083797889273e-01 4.8934117883983719e-01 7.4602733006418609e-01  6.4606968906869688e-01 4.9900699980780200e-01 7.3709449642966207e-01  6.4695505035635092e-01 5.0836492132655620e-01 7.2818971080877937e-01  6.4771221357389919e-01 5.1716670951982346e-01 7.1958453093692265e-01  6.4836018633990777e-01 5.2542106577890624e-01 7.1130449508103410e-01  6.4891952904226291e-01 5.3332154602695858e-01 7.0320147110537368e-01  6.4939730826583852e-01 5.4085408607278207e-01 6.9530734805790051e-01  6.4979922917228672e-01 5.4803610834943040e-01 6.8763209763368682e-01  6.5013163595783319e-01 5.5487652010405464e-01 6.8018550814399448e-01  6.5040293162981200e-01 5.6142352618485281e-01 6.7293410219959204e-01  6.5061770365253391e-01 5.6769375970072589e-01 6.6587547114412837e-01  6.5077962026529423e-01 5.7364333378657673e-01 6.5907521127413726e-01  6.5089487851264738e-01 5.7934903034051533e-01 6.5245788311266417e-01  6.5096874420415785e-01 5.8484090126362842e-01 6.4600299108293358e-01  6.5100251949461685e-01 5.9003673774730647e-01 6.3981467275836712e-01  6.5100122845456365e-01 5.9505518380760025e-01 6.3376442181826398e-01  6.5096848146524700e-01 5.9986653311745131e-01 6.2789462175967248e-01  6.5090677231610439e-01 6.0446518950375450e-01 6.2222159840233049e-01  6.5081866810999833e-01 6.0887404464209527e-01 6.1672365878496183e-01  6.5070709743178445e-01 6.1309974327811834e-01 6.1139978655057359e-01  6.5057380223385819e-01 6.1716253007027566e-01 6.0623039891862129e-01  6.5042040299328674e-01 6.2108593188035954e-01 6.0119070191777835e-01  6.5025218047965216e-01 6.2479970501716542e-01 5.9637682599331310e-01  6.5006950227428262e-01 6.2834705687578796e-01 5.9173823878313936e-01  6.4987015892703792e-01 6.3181690115402100e-01 5.8716274236719479e-01  6.4966137977554050e-01 6.3510646252864600e-01 5.8278954614197942e-01  6.4944431902962252e-01 6.3823042824854481e-01 5.7860375196119385e-01  6.4921785019542000e-01 6.4124399338502180e-01 5.7453560867941333e-01  6.4898536665918405e-01 6.4412277205713786e-01 5.7062113698604866e-01  6.4874579241863073e-01 6.4689464116850826e-01 5.6682562809611270e-01  6.4850586835867707e-01 6.4950990437661860e-01 5.6322025033872436e-01  6.4826076955856815e-01 6.5203147234993464e-01 5.5972157447452020e-01  6.4801554377780746e-01 6.5442498194810583e-01 5.5637965193487260e-01  6.4776893290799487e-01 6.5672062037390422e-01 5.5315491287645902e-01  6.4752107991382168e-01 6.5892802183500898e-01 5.5003632402177804e-01  6.4727871026561534e-01 6.6099130479069568e-01 5.4710501368437103e-01  6.4704023269656652e-01 6.6294335301833163e-01 5.4431650639700213e-01  6.4680134887184249e-01 6.6483152518600264e-01 5.4160581003012220e-01  6.4656975669863959e-01 6.6659908823278013e-01 5.3905556480378070e-01  6.4634536503949069e-01 6.6825624640470938e-01 5.3665343892710959e-01  6.4612585137433642e-01 6.6983149943937947e-01 5.3435971792724835e-01  6.4591241800854604e-01 6.7132262590814784e-01 5.3217967893518237e-01  6.4570908688454287e-01 6.7270611147315096e-01 5.3014850327446217e-01  6.4889939234613692e-01 6.4512002478377994e-01 5.6925771788607915e-01  5.0667661838856626e-01 5.4491846378881093e-01 2.3306341939041489e-01  6.4530030669850447e-01 6.7541339648488674e-01 5.2615221422793168e-01  5.1088615935206938e-01 5.1552568652713604e-01 2.7372210438648692e-01  6.4567076332772022e-01 6.7295389944782491e-01 5.2978309248857736e-01  4.8505158921650632e-01 4.1830777217672704e-01 2.0488391579274390e-01  6.4846393029435190e-01 6.5002961655284508e-01 5.6250082681115576e-01  6.5090844916111557e-01 5.8049417974352591e-01 6.5111337690801796e-01  5.3588372041998911e-01 6.6530659777647572e-01 2.6002422517939050e-01  5.0839136847869204e-01 5.6810953817891552e-01 2.1660205025130469e-01  6.5065960002024492e-01 6.1458941341211148e-01 6.0950911176557743e-01  4.7002111525564066e-01 1.1439858041824809e-01 3.1120964265174500e-01  5.9142578669424439e-01 2.5569415145856461e-01 8.6010339363344634e-01  6.5098580222665048e-01 5.8708665674065763e-01 6.4333727402535434e-01  4.5938176724676760e-01 1.5796106905881024e-01 2.1633567783735991e-01  6.4440684351884781e-01 6.8085876595892680e-01 5.1801477686276587e-01  5.2787475628499092e-01 1.1413028189380357e-01 6.6726455051539935e-01  4.8379266905636181e-01 4.0495041703760615e-01 2.1065900889263034e-01  6.4396806096363179e-01 6.8335602697921538e-01 5.1423859910203962e-01  6.4959366688433073e-01 5.4428862823544577e-01 6.9165327061231852e-01  4.8166607746943346e-01 3.3666104874528879e-01 2.4915807742730733e-01  6.4456114751908622e-01 4.8461771911437246e-01 7.5039536993376410e-01  6.4399420693719878e-01 6.8320524759408863e-01 5.1446672112461345e-01  5.0381080833692782e-01 5.4048888768403636e-01 2.2480032069690276e-01  6.1043142472015544e-01 3.7769367514158259e-01 8.0744120172375200e-01  4.8797799259765351e-01 1.1828019487119841e-01 4.3221413815867021e-01  6.4434130680246793e-01 6.8122306871546323e-01 5.1746441496849527e-01  6.4744656529530631e-01 6.5955846405781848e-01 5.4914182284464230e-01  5.1040749489166526e-01 2.1923969180957956e-01 5.2456352064833711e-01  5.4378475811638749e-01 1.3595000851004452e-01 7.4080953784667880e-01  6.5008691489625337e-01 6.2816929179012015e-01 5.9196902081645686e-01  6.4653545144526237e-01 6.6689731526542695e-01 5.3862506030245605e-01  4.9215294602072290e-01 3.1611453852807597e-01 3.3809152309567070e-01  5.1278665778253929e-01 1.1776306209301729e-01 5.9141506175048986e-01  6.0648587018070854e-01 3.4257954548921710e-01 8.2563761440287819e-01  6.4481484975725500e-01 6.7841078985822156e-01 5.2168730488206116e-01  4.6358778264684924e-01 1.4279095574346151e-01 2.5316511866904856e-01  6.3149856079734024e-01 4.8039183459465251e-01 7.4570521026543668e-01  6.4650801210720110e-01 6.6704862069140436e-01 5.3840411682976386e-01  6.4980155215220115e-01 6.3291715460077591e-01 5.8570462984570648e-01  4.6010817455619235e-01 2.0668056561528372e-01 1.9073820817734280e-01  5.8058721484043674e-01 7.0874946136003847e-01 3.7088187737658640e-01  6.5083481379216712e-01 6.0834029774235698e-01 6.1738319341426418e-01  6.4417081194464654e-01 6.8221163827954212e-01 5.1597205541338809e-01  6.4931396506945671e-01 6.4009371569102846e-01 5.7609072146946594e-01  6.1189257819295972e-01 7.2388051983841284e-01 4.1637874184127599e-01  4.6286332810846492e-01 1.6489195880445714e-01 2.3607637661522693e-01  6.5031858860505043e-01 5.4949327273471826e-01 6.8521792979481466e-01  5.6775262169537766e-01 4.8128106379162561e-01 5.8636979432622538e-01  6.4817682873026028e-01 6.5284636771674520e-01 5.5858466217613201e-01  6.4590948166140427e-01 6.7137573919590077e-01 5.3210339394905393e-01  6.5069211821855277e-01 5.7031579079377426e-01 6.6289101594702005e-01  6.3198561387308172e-01 4.9834702718524571e-01 7.2608650631750327e-01  6.4803206000125135e-01 5.2115645810346212e-01 7.1560931707157116e-01  4.9463057881356004e-01 4.3056645085953854e-01 2.5584357758695941e-01  6.4735480230750042e-01 6.6041066404187088e-01 5.4793271480783468e-01  6.5094654612