<?xml version="1.0"?>
<VTKFile type="UnstructuredGrid"  version="0.1"  >
<UnstructuredGrid>
<Piece  NumberOfPoints="4940" NumberOfCells="9650">
<Points>
<DataArray  type="Float64"  NumberOfComponents="3"  format="ascii">500 250 0  0 250 0  250 500 0  250 0 0  256.8885856082646 499.9050767557906 0  263.7719401218049 499.6203791065173 0  270.6448364229772 499.1461232471188 0  277.5020553257866 498.4826693209355 0  284.3383895508592 497.6305211460281 0  291.1486476865662 496.5903258312597 0  297.9276581259182 495.3628732847843 0  304.6702729675493 493.9490956196674 0  311.3713719748657 492.3500664368026 0  318.0258664141369 490.5670000199653 0  324.6287029687753 488.6012504015818 0  331.1748675330201 486.4543103455647 0  337.6593890460416 484.1278102064655 0  344.0773432429536 481.6235166997244 0  350.4238564271474 478.9433315480048 0  356.694109139292 476.0892900492477 0  362.88333985546 473.0635595140469 0  368.9868485575419 469.8684376402048 0  375.0000003153078 466.5063507640667 0  380.9182288257928 462.9798520074548 0  386.7370398729688 459.2916193419558 0  392.4520147244077 455.444453565817 0  398.0588135356345 451.4412761437442 0  403.5531785622926 447.285127045646 0  408.9309374414144 442.9791624087773 0  414.1880064015299 438.5266521049243 0  419.3203932989752 433.9309773069245 0  424.324200661095 429.1956279150535 0  429.1956286596235 424.3241998957182 0  433.9309780058756 419.3203925397119 0  438.5266527445345 414.1880056671062 0  442.9791630130591 408.9309367076756 0  447.2851276060475 403.5531778422888 0  451.4412766621026 398.0588128303826 0  455.4444540361634 392.4520140460735 0  459.2916197786263 386.7370392045948 0  462.9798524073514 380.9182281752347 0  466.5063511234856 374.9999996927758 0  469.8684379657123 368.9868479560565 0  473.0635598144817 362.8833392617846 0  476.0892903190255 356.6941085676214 0  478.9433317963513 350.4238558609745 0  481.6235169154735 344.0773427117675 0  484.12781039012 337.6593885555221 0  486.4543105028062 331.1748670749914 0  488.601250531677 324.6287025528375 0  490.5670001317469 318.0258660188321 0  492.3500665291326 311.3713716102628 0  493.949095695951 304.6702726271575 0  495.3628733416623 297.9276578347343 0  496.5903258712341 291.1486474470129 0  497.6305211749058 284.3383893426084 0  498.4826693388848 277.502055163614 0  499.1461232580606 270.6448362909296 0  499.6203791109319 263.7719400417897 0  499.9050767571306 256.8885855596534 0  499.9050767559877 243.1114143988867 0  499.6203791069493 236.2280598860241 0  499.1461232485393 229.3551635941651 0  498.4826693235677 222.4979446979962 0  497.6305211491849 215.6616104719064 0  496.5903258357701 208.8513523404629 0  495.3628732906988 202.0723419043604 0  493.9490956264813 195.3297270628552 0  492.3500664487791 188.6286280724281 0  490.5670000344809 181.9741336371959 0  488.6012504175981 175.3712970824318 0  486.4543103623226 168.8251325157939 0  484.1278102222298 162.3406109960628 0  481.6235167152198 155.9226567951971 0  478.9433315621651 149.5761436051346 0  476.0892900516498 143.3058908657982 0  473.063559513628 137.1166601437124 0  469.8684376406648 131.0131514433083 0  466.5063507675389 124.9999996907064 0  462.9798520124137 119.0817711822745 0  459.2916193464549 113.2629601339176 0  455.4444535642773 107.5479852733717 0  451.4412761528674 101.9411864767781 0  447.2851270583545 96.44682145403524 0  442.9791624165781 91.06906256805769 0  438.5266521117469 85.81199360630404 0  433.9309773156125 80.67960671046254 0  429.1956279150353 75.67579933888632 0  424.3241998888952 70.80437133373906 0  419.3203925223282 66.06902197812161 0  414.1880056411937 61.47334723289828 0  408.9309366751728 57.0208369601728 0  403.5531778009394 52.71487236176898 0  398.058812796452 48.55872331295853 0  392.4520140187753 44.55554594490843 0  386.7370391799677 40.70838020528396 0  380.9182281475119 37.02014757560744 0  374.9999996718656 33.49364886444181 0  368.9868479340393 30.13156202237255 0  362.8833392380029 26.93644017348339 0  356.6941085456942 23.91070967062674 0  350.4238558420009 21.0566681953261 0  344.0773426899492 18.37648307566465 0  337.6593885328982 15.87218960140942 0  331.1748670549786 13.54568949032341 0  324.6287025315056 11.39874946165088 0  318.0258660010876 9.432999863235466 0  311.3713716017894 7.649933468721599 0  304.6702726190621 6.050904302234756 0  297.9276578269805 4.637126656823085 0  291.148647441857 3.409674127905504 0  284.3383893425031 2.369478825079682 0  277.502055159398 1.517330660648639 0  270.6448362875833 0.853876741662134 0  263.7719400401456 0.3796208889774277 0  256.8885855592052 0.09492324285704967 0  243.1114143979462 0.09492324403817065 0  236.2280598850882 0.3796208931023841 0  229.3551635938215 0.8538767514891958 0  222.4979446968584 1.517330676558146 0  215.6616104703111 2.369478851036291 0  208.8513523382973 3.409674164591252 0  202.0723419066374 4.637126708856528 0  195.3297270659513 6.050904372824903 0  188.628628074828 7.649933550613184 0  181.9741336377093 9.432999965373938 0  175.3712970793675 11.39874958336037 0  168.8251325057572 13.54568964112298 0  162.340610986655 15.87218978129263 0  155.9226567874317 18.37648328793418 0  149.576143602509 21.05666843898663 0  143.3058908718157 23.91070994551046 0  137.1166601505524 26.93644048291054 0  131.0131514451933 30.13156235831508 0  124.9999996848412 33.49364923584736 0  119.0817711715717 37.0201479941652 0  113.2629601211624 40.70838066187849 0  107.5479852622251 44.55554644345162 0  101.9411864693332 48.55872385260452 0  96.44682143286516 52.71487295812284 0  91.06906254351222 57.02083760363669 0  85.81199358272519 61.4733479087879 0  80.67960667988106 66.06902271253972 0  75.67579930062769 70.80437212218331 0  70.80437129287643 75.67580015310926 0  66.06902193673014 80.67960752263491 0  61.47334718684866 85.81199441168215 0  57.02083692524275 91.0690633672404 0  52.71487232786438 96.44682224262129 0  48.55872328070024 101.941187247437 0  44.55554591578033 107.5479860232332 0  40.7083801742321 113.2629608675606 0  37.02014754791168 119.0817718975441 0  33.49364883372994 125.000000381329 0  30.13156199866361 131.0131521097709 0  26.9364401549829 137.1166607985551 0  23.91070965524918 143.3058914868915 0  21.05666818346614 149.576144185037 0  18.37648306853811 155.9226573275967 0  15.8721895918909 162.3406114925245 0  13.54568948170046 168.8251329701392 0  11.39874945301878 175.3712974960928 0  9.432999857087736 181.9741340206533 0  7.649933466342702 188.6286284076045 0  6.050904301250966 195.3297273853278 0  4.637126656808988 202.0723421730917 0  3.409674127767772 208.8513525589684 0  2.369478824521138 215.6616106615248 0  1.517330660909465 222.4979448382452 0  0.8538767414496533 229.355163714981 0  0.3796208887135322 236.2280599646376 0  0.09492324266324204 243.1114144478261 0  0.0949232442452228 256.8885856095658 0  0.3796208935834784 263.7719401236316 0  0.8538767530323526 270.6448364248016 0  1.517330679476544 277.5020553295092 0  2.369478854618649 284.3383895555228 0  3.409674170191892 291.1486476952655 0  4.6371267162381 297.9276581311522 0  6.050904381420935 304.6702729724059 0  7.649933562385399 311.3713719716595 0  9.43299997979841 318.0258664133013 0  11.3987495994252 324.6287029719946 0  13.54568965885832 331.174867545904 0  15.87218979367188 337.6593890464085 0  18.37648329843151 344.0773432384132 0  21.05666844777872 350.423856417535 0  23.91070995156048 356.6941091410045 0  26.93644048988043 362.8833398632205 0  30.13156235982007 368.9868485575877 0  33.49364924138357 375.0000003247478 0  37.0201480006036 380.9182288389023 0  40.70838066758398 386.7370398875706 0  44.55554644477201 392.4520147396792 0  48.55872386086904 398.0588135419111 0  52.71487295981296 403.5531785693063 0  57.02083760525949 408.9309374584583 0  61.47334790862246 414.1880064170849 0  66.06902271205095 419.320393319588 0  70.80437211216579 424.3242006890749 0  75.67580013809859 429.195628692521 0  80.6796075127923 433.930978054209 0  85.81199439754931 438.5266528008431 0  91.06906334717917 442.9791630582355 0  96.44682221438322 447.2851276501571 0  101.9411872243843 451.441276702356 0  107.5479859945825 455.4444540643537 0  113.2629608446994 459.2916198108319 0  119.0817718768376 462.9798524393601 0  125.0000003647644 466.5063511567065 0  131.0131521012763 469.8684379967393 0  137.1166607840049 473.0635598376539 0  143.3058914748804 476.0892903390826 0  149.5761441732679 478.9433318113714 0  155.9226573130112 481.6235169255377 0  162.3406114779862 484.1278104026658 0  168.8251329570439 486.4543105138039 0  175.3712974805475 488.601250542119 0  181.9741340135204 490.5670001408953 0  188.6286284005059 492.3500665318597 0  195.3297273788229 493.9490956972913 0  202.0723421640089 495.3628733414168 0  208.8513525529672 496.5903258712308 0  215.6616106544547 497.6305211744985 0  222.4979448327038 498.4826693384772 0  229.3551637102845 499.1461232581612 0  236.2280599621369 499.6203791111485 0  243.1114144470173 499.9050767573145 0  155.2373389820306 474.8197567317462 0  25.36256300907667 153.9152755065208 0  432.3709625126712 412.6214396304305 0  6.013151705810699 246.637913163471 0  246.6379131630491 493.986848294322 0  338.6995838441862 22.68244767887072 0  477.3175523131281 338.6995838660569 0  493.9868482700757 246.6379131399102 0  246.6201155078769 6.218451882810491 0  417.6179310263282 72.7156044707053 0  102.2232990934413 445.0100869616822 0  63.66330858966404 92.20354579482142 0  391.3105220491464 50.73522820883105 0  72.79295043967942 418.0702734974704 0  448.290574428537 108.25674339002 0  402.4604651193511 440.7462829841712 0  97.55317348421397 59.11376320116034 0  136.7376477664901 33.58246472647134 0  363.3288394375288 465.6947312928271 0  44.0678766556007 381.0860953771871 0  469.6905266180034 142.3890690100806 0  22.68244791668644 338.6995843487432 0  338.699584349159 477.317552078365 0  173.389488083762 18.6681884918202 0  483.4809734778481 179.7121987795732 0  13.50237455842738 306.4709525540879 0  305.9825168523021 487.24416992
[...]
<PointData  Vectors="f_12"> 
<DataArray  type="Float64"  Name="f_12"  NumberOfComponents="3" format="ascii">4.9134523758684545e-01 2.5833033570736330e-01 3.7101466831298829e-01  5.5715122159061148e-01 6.2742478371180110e-01 3.8287749080023176e-01  5.7428297865177491e-01 7.6724234299094507e-01 2.7614705476915158e-01  4.9742342405958156e-01 8.5910258404462619e-02 5.0207400815835879e-01  5.7371077859576292e-01 7.6680659288734354e-01 2.7509457497723966e-01  5.7319142250289301e-01 7.6639685737378260e-01 2.7414514614661156e-01  5.7269302512635645e-01 7.6599201080495993e-01 2.7323843804514852e-01  5.7224074477377551e-01 7.6561454511656979e-01 2.7241966258536504e-01  5.7182331117642160e-01 7.6525724277860618e-01 2.7166765607687343e-01  5.7144218826691184e-01 7.6492389389595072e-01 2.7098355278948788e-01  5.7109692966527670e-01 7.6461602059948841e-01 2.7036612333321280e-01  5.7078493659323826e-01 7.6433292499465899e-01 2.6980998770927000e-01  5.7050876831479025e-01 7.6407842770610390e-01 2.6931909291375522e-01  5.7027033038409980e-01 7.6385576337200645e-01 2.6889649892946427e-01  5.7008887253532181e-01 7.6368408637893492e-01 2.6857582712316846e-01  5.6990075571843368e-01 7.6350548636327875e-01 2.6824306694868072e-01  5.6980488926377759e-01 7.6341301382029636e-01 2.6807440597845761e-01  5.6971056710990786e-01 7.6332242322706345e-01 2.6790793830606535e-01  5.6966051922375371e-01 7.6327415033856205e-01 2.6781973510590373e-01  5.6964316157564920e-01 7.6325772455092777e-01 2.6778882220262129e-01  5.6965506050639547e-01 7.6326996562180527e-01 2.6780879590199469e-01  5.6972332446366003e-01 7.6333616578367847e-01 2.6792882376500798e-01  5.6983080149458598e-01 7.6343992168121999e-01 2.6811820741641695e-01  5.6995145012714554e-01 7.6355635724049298e-01 2.6833008038784301e-01  5.7011177039796312e-01 7.6370984593553637e-01 2.6861233331950957e-01  5.7032253711002501e-01 7.6390888834914039e-01 2.6898484593634953e-01  5.7058758792253494e-01 7.6415589478179524e-01 2.6945470767612051e-01  5.7086394701473742e-01 7.6441059295228519e-01 2.6994521472738087e-01  5.7117633810412460e-01 7.6469394137777269e-01 2.7050136021085591e-01  5.7155318502294172e-01 7.6502888894179077e-01 2.7117532721865539e-01  5.7194968108717126e-01 7.6537445520288405e-01 2.7188689412356937e-01  5.7239248954878852e-01 7.6575088211498943e-01 2.7268531884431746e-01  5.7287770605833488e-01 7.6615294278326496e-01 2.7356450469481508e-01  5.7339102777950735e-01 7.6656646182636190e-01 2.7449885299361620e-01  5.7397134377741266e-01 7.6701790660896241e-01 2.7556199041823054e-01  5.7458792006006876e-01 7.6748062990136445e-01 2.7669862694130237e-01  5.7522644962755520e-01 7.6794188222083148e-01 2.7788214245236798e-01  5.7593126671697825e-01 7.6842768285172136e-01 2.7919894453941974e-01  5.7670543463813639e-01 7.6893351692798395e-01 2.8065823417049884e-01  5.7750924316787022e-01 7.6943010381956767e-01 2.8218529331877967e-01  5.7833996118377096e-01 7.6991249097342429e-01 2.8377655706702459e-01  5.7924099393496964e-01 7.7039845129883255e-01 2.8551997857713707e-01  5.8021347456506900e-01 7.7088162086017609e-01 2.8742079616157579e-01  5.8122694724147772e-01 7.7133858118056520e-01 2.8942411642108423e-01  5.8230676567624307e-01 7.7177279204342519e-01 2.9158490729339537e-01  5.8344578972799344e-01 7.7217426441808579e-01 2.9389171586812035e-01  5.8464164514098282e-01 7.7253255681387933e-01 2.9634611800850114e-01  5.8589245649612809e-01 7.7283805012334950e-01 2.9895099834893329e-01  5.8724154605284395e-01 7.7308484125175225e-01 3.0180549562488024e-01  5.8864545483812025e-01 7.7325832259540639e-01 3.0482570226746653e-01  5.9012253706115325e-01 7.7334506456382945e-01 3.0805438333721635e-01  5.9169011806098548e-01 7.7333832157486460e-01 3.1152796437164915e-01  5.9327533849675373e-01 7.7310862279336068e-01 3.1526915815383394e-01  5.9478207000602490e-01 7.7266483649417583e-01 3.1903216082184171e-01  5.9617740723138513e-01 7.7354864014297087e-01 3.2092995184262790e-01  6.0134856990435159e-01 7.7664727304533121e-01 3.2766768652280936e-01  6.1885904800503910e-01 7.5385178283238019e-01 3.8482034720407798e-01  6.3529146583095253e-01 6.0818937315354671e-01 6.0491232594711819e-01  5.8059392964257062e-01 2.5943063523364268e-01 8.3668146861395154e-01  4.8886193498633268e-01 1.0578354776781664e-01 4.5702222559278854e-01  5.3262532194109624e-01 4.4594961460126442e-01 4.6199919868003003e-01  5.9898980547337122e-01 4.8979800186147443e-01 6.8376083033783397e-01  6.3649727713416526e-01 6.2891724703089280e-01 5.8072826724824989e-01  6.4367751281329078e-01 6.8367645246431474e-01 5.1108713605993150e-01  6.4393451836782656e-01 5.9602761691312056e-01 6.2832519649482266e-01  6.2852256844491683e-01 4.2305250052611981e-01 7.9795867487653216e-01  5.8442726619253449e-01 2.4088028979906498e-01 8.4270083341725688e-01  5.5254164135247463e-01 2.1148543685133231e-01 7.5589636317351516e-01  5.6067945027418054e-01 4.4939641831417643e-01 5.8674489984707656e-01  5.1384811684674925e-01 4.8431430263949371e-01 3.2121747321360850e-01  4.7230049636814958e-01 1.8249530097388525e-01 2.9136659828655237e-01  4.9309776923301629e-01 8.5709773360429301e-02 4.7383658711544130e-01  4.9814320801782247e-01 8.1695305874041807e-02 5.0715660098229065e-01  4.6934499701538179e-01 1.1618657090447260e-01 3.0442628842656200e-01  4.7745209379271830e-01 3.2460062513727878e-01 2.3250929450675256e-01  5.4524592908592862e-01 5.7301839347987560e-01 3.9394899176451903e-01  5.9452394067222802e-01 4.5497800596641952e-01 7.0112901904090252e-01  6.2134333428894495e-01 4.2514546018527022e-01 7.8577846212241831e-01  6.4470154868155394e-01 5.1916267538547578e-01 7.1345382467580543e-01  6.3840486390545326e-01 4.7070985982996005e-01 7.5819100750925006e-01  6.0411168886627886e-01 2.9349779847350566e-01 8.5472193452769785e-01  5.8579876831789990e-01 2.1959074862916453e-01 8.4575856603679567e-01  5.9094593150913388e-01 2.3071745580396222e-01 8.5124126450891546e-01  6.0355687642506040e-01 2.7170215633110489e-01 8.5811679030682864e-01  6.1638799002383204e-01 3.2244443140761669e-01 8.5052863488175023e-01  6.2821993697255696e-01 3.7802801005507614e-01 8.2785521175169940e-01  6.3623805349623297e-01 4.1776408993667469e-01 8.0137690025906416e-01  6.2056091860287454e-01 3.4099652156719545e-01 8.4774881170491267e-01  5.6344477712764462e-01 1.6509720098596772e-01 8.0880263371221706e-01  5.0461422908322806e-01 9.0123986710439544e-02 5.4572640917756787e-01  4.7245443417645022e-01 9.4184346705050340e-02 3.3801336466857662e-01  4.6037002070408356e-01 1.5307588674907471e-01 2.2600497113665313e-01  4.6856350407282277e-01 3.0309709818269293e-01 1.8700426859333552e-01  5.0372911498799733e-01 5.5399147947706417e-01 2.0812106055485088e-01  5.5675754208902484e-01 7.2124262252063254e-01 2.8257483288721513e-01  6.0486165140653581e-01 7.3178183913108086e-01 3.9460287448957465e-01  6.3405462056426609e-01 6.6339574942301893e-01 5.2915660349046412e-01  6.4187042438907960e-01 5.5356388836995241e-01 6.7205170916086276e-01  6.3339224969642915e-01 4.3075115576521689e-01 7.9576077985371951e-01  6.1375444387738887e-01 3.1642628858642280e-01 8.6012633833570662e-01  5.8942991229326247e-01 2.2868054368749199e-01 8.5531886614545416e-01  5.7679887951184960e-01 1.9289402697478164e-01 8.3341320819682918e-01  5.7296264218761650e-01 1.8300722734408920e-01 8.2760037187944424e-01  5.8254141843493223e-01 2.0767539470836324e-01 8.4780273571520837e-01  6.0262671104121912e-01 2.7617921727329969e-01 8.5946065956407991e-01  6.2584957001924246e-01 3.8933531435371421e-01 8.1821792582744612e-01  6.4008703439947279e-01 5.2362034284723924e-01 7.0585376282520762e-01  6.3510682407645191e-01 6.4645826013709506e-01 5.5250019524383354e-01  6.0519703322867868e-01 7.2716620521560715e-01 4.0132211682908364e-01  5.5394296824004441e-01 7.1449296735368573e-01 2.7931144184470186e-01  4.9994079601328434e-01 5.3431659087857097e-01 2.0440592125724902e-01  4.6727111180061415e-01 2.8244318875747398e-01 1.9017286945142545e-01  4.6252625868164732e-01 1.4210581062760164e-01 2.4703385763485927e-01  4.8712548498191194e-01 9.3075972252522524e-02 4.3402071090631822e-01  5.3759143432039980e-01 1.1534078334796379e-01 7.1017281580982539e-01  5.4146963475868304e-01 1.1907608761268856e-01 7.2693924219858430e-01  4.7162257619972459e-01 9.2860130162970608e-02 3.3371006171188933e-01  4.6074152269651458e-01 1.1168709993490510e-01 2.5289328342310241e-01  4.5857219270083155e-01 1.3764626133547783e-01 2.2446087429006500e-01  4.6062775922017579e-01 1.2609007371896008e-01 2.4420951407986269e-01  4.7429326841231756e-01 9.4334334761321886e-02 3.5155326255802155e-01  5.1666705963481829e-01 1.0072462517640736e-01 6.0991566912422257e-01  5.6586622985528900e-01 1.6047046644075852e-01 8.0991042826165383e-01  5.4622131388740047e-01 1.3314659555946803e-01 7.4207569833786480e-01  5.0448538261358733e-01 1.0143961827732989e-01 5.4722798206035972e-01  5.2221393199982535e-01 1.9755034220391471e-01 6.1541664599564128e-01  5.6543987701160614e-01 4.8697496581300392e-01 5.7140829053891051e-01  5.2183821473650605e-01 5.1946351614053943e-01 3.3019020408338878e-01  4.7547863690441255e-01 2.2381397918289955e-01 2.8951018709667820e-01  5.0093343592773709e-01 1.1912162142397591e-01 5.2089470040295749e-01  5.9445894629286755e-01 2.6745960880295583e-01 8.5834823930842885e-01  6.3652352542875335e-01 4.2868822582942634e-01 7.9227395600863348e-01  5.8562753164797943e-01 2.2834874478823344e-01 8.5570532280988476e-01  5.1640001716418149e-01 9.9705417472424035e-02 6.1404940072418901e-01  4.7584576963287717e-01 9.4120374880303670e-02 3.6120385650770792e-01  4.6026361097996671e-01 1.4614859710254699e-01 2.3006031933660714e-01  4.6591957136126116e-01 2.7732144744789600e-01 1.8521457776626704e-01  4.9123199018173208e-01 4.8473517032364677e-01 1.9181542633095033e-01  5.3194397189137221e-01 6.7382664667870107e-01 2.3499269757002852e-01  5.7609886518774589e-01 7.4937849548169255e-01 3.0671977995990291e-01  6.1128897076420241e-01 7.3853483627379557e-01 3.9569990981280995e-01  6.3284833140443797e-01 6.9247545039749914e-01 4.8784583721626268e-01  6.4290953294247011e-01 6.3878572474228079e-01 5.6874462868300868e-01  6.4595979072711873e-01 5.9459363460970605e-01 6.2659446347044645e-01  6.4607728298402545e-01 5.6899811820574520e-01 6.5681271773055860e-01  6.4590389456957986e-01 5.6781343768810022e-01 6.5794090222468704e-01  6.4553819753203578e-01 5.8997000594902915e-01 6.3256224088167123e-01  6.4325949452584685e-01 6.3367850967049266e-01 5.7607164324603499e-01  6.3491099080634006e-01 6.8499286920866898e-01 4.9996911830058460e-01  6.1702017983288970e-01 7.3678942104743195e-01 4.0725783461368026e-01  5.8502065761111988e-01 7.5563528899392318e-01 3.2090680084816314e-01  5.4305018865591259e-01 7.0737675540746914e-01 2.4763963642943984e-01  5.0055418032830801e-01 5.4485620615931751e-01 1.9755044938577720e-01  4.7101436184142731e-01 3.3273330641442150e-01 1.8086355532774476e-01  4.5934715296593387e-01 1.8280416148835138e-01 2.0250708446563220e-01  4.6428253989974066e-01 1.0918190948062628e-01 2.7606314508539070e-01  4.8408135319362444e-01 8.3671813700108705e-02 4.1731665632034343e-01  5.0603976780138382e-01 8.1481666078786333e-02 5.5593395854955385e-01  4.8830579463278512e-01 8.9281726775667605e-02 4.4103680330591166e-01  4.6496476046110058e-01 1.2886141966780981e-01 2.6769765027663112e-01  4.5789364769183760e-01 1.6000920385651651e-01 2.0389759114100284e-01  4.5738002850597065e-01 1.6040482186025032e-01 2.0025573607222644e-01  4.5720912958931853e-01 1.5673590257211689e-01 2.0134330514425189e-01  4.5722068222502754e-01 1.6236288696900508e-01 1.9817822176049119e-01  4.5773445865914342e-01 1.8242351109825972e-01 1.9006834636229880e-01  4.6018500443922156e-01 2.0956192004333321e-01 1.8952851532274750e-01  4.7049411481751252e-01 1.8456704651065006e-01 2.7567930532239315e-01  5.1237191543440497e-01 1.3445389417701917e-01 5.8480445171707252e-01  5.9747983906942170e-01 2.6338100282565913e-01 8.5916085324359914e-01  5.8761704198260756e-01 2.4204422339935447e-01 8.4207037251126549e-01  5.4805225855552064e-01 1.7469428407542995e-01 7.5516180996791593e-01  5.7178356083809589e-01 3.7933412997808591e-01 7.0394513261571257e-01  4.8876365292729596e-01 4.3411288332373482e-01 2.2100029207252822e-01  4.6199274554867781e-01 1.7158215601764396e-01 2.2543416528576030e-01  4.7386844058172056e-01 9.2899045913859918e-02 3.4575788497629867e-01  4.8056170998194614e-01 7.8966491487190801e-02 3.9873569003029935e-01  4.6755303106657842e-01 1.3934811174946682e-01 2.8105694210857535e-01  4.8750053038104113e-01 4.0070910581662839e-01 2.3860788821084716e-01  5.4262534172033317e-01 6.1224909110565062e-01 3.3735677842007245e-01  5.3863801047930016e-01 3.7589318478763994e-01 5.6170864972434142e-01  5.0605703860619033e-01 1.4045755776936919e-01 5.4561511997690737e-01  5.5611323229109444e-01 1.7178200742179695e-01 7.8628055622421067e-01  6.2487323141766671e-01 4.0844815701979009e-01 8.0947699423323582e-01  6.4608056485476484e-01 5.9185511630022902e-01 6.3234971172529220e-01  6.3254996647797890e-01 5.9144906366663186e-01 6.2121023854809232e-01  5.8726243008301593e-01 5.2366752458878740e-01 6.1273496541166095e-01  5.1696909544698855e-01 4.2644755835129994e-01 3.9548911385445190e-01  4.7840026802134261e-01 1.7912257634182660e-01 3.3864292587864769e-01  5.2045919240016569e-01 1.2807956328437708e-01 6.3644448118900909e-01  6.1139402339834137e-01 3.5962026275427650e-01 8.3681284534917000e-01  6.4206431740702574e-01 6.4532738677039980e-01 5.5943574855107470e-01  6.2930934200798705e-01 7.3826225771811904e-01 4.2234079262137941e-01  6.1961409693300229e-01 7.5716403788870679e-01 3.8405712835320105e-01  6.1639051487604413e-01 7.5793642775550685e-01 3.7788839610297070e-01  6.1487837098601295e-01 7.5918974866296007e-01 3.7388883632442127e-01  6.1327439584661314e-01 7.6122646394024529e-01 3.6852136526957485e-01  6.1158459161824319e-01 7.6310910637249385e-01 3.6321510012279301e-01  6.0988666613378040e-01 7.6472975965200596e-01 3.5819235028010110e-01  6.0822118869540609e-01 7.6618356808299370e-01 3.5337980379539308e-01  6.0660729735991181e-01 7.6745827319850157e-01 3.4883332369290021e-01  6.0501098642338158e-01 7.6858830225593699e-01 3.4445334704618913e-01  6.0344582040973815e-01 7.6957595699806491e-01 3.4025884030668402e-01  6.0191642566433090e-01 7.7042588761642572e-01 3.3625503656187872e-01  6.0041898692744211e-01 7.7114941916384716e-01 3.3242125397413935e-01  5.9895486445137847e-01 7.7175502712916122e-01 3.2875083164233010e-01  5.9751998397910333e-01 7.7225115083378271e-01 3.2522646684975831e-01  5.9610920085854291e-01 7.7264663316895577e-01 3.2182760244317787e-01  5.9474891685260012e-01 7.7294212672187634e-01 3.1861026868122511e-01  5.9342692707458233e-01 7.7314743544946607e-01 3.1553949251331670e-01  5.9211447538404893e-01 7.7327366535192610e-01 3.1254109418829978e-01  5.9084954481231156e-01 7.7332166762306431e-01 3.0969846682625329e-01  5.8962900839561572e-01 7.7329819448925352e-01 3.0699957898115099e-01  5.8843540893451562e-01 7.7321093439839084e-01 3.0439834721474446e-01  5.8727935995252489e-01 7.7306571046735417e-01 3.0191384272856070e-01  5.8615150199750921e-01 7.7286515258342270e-01 2.9952420435878174e-01  5.8507335385024783e-01 7.7262078270244250e-01 2.9726759122443447e-01  5.8402137988567993e-01 7.7233073022635790e-01 2.9509462237132067e-01  5.8301063909611239e-01 7.7200488901437780e-01 2.9303155049871737e-01  5.8203112448443528e-01 7.7164515732653360e-01 2.9105358853888214e-01  5.8107992697114985e-01 7.7125464119857157e-01 2.8915294934894237e-01  5.8018001363816663e-01 7.7084581766561866e-01 2.8737588659101820e-01  5.7932026039299589e-01 7.7042033249279240e-01 2.8569403462142323e-01  5.7848224373080936e-01 7.6997373477684561e-01 2.8406918016301486e-01  5.7769022802060832e-01 7.6952141698109633e-01 2.8254740573979992e-01  5.7694091018296401e-01 7.6906632153101651e-01 2.8112059089310054e-01  5.7622372025769841e-01 7.6860639579824019e-01 2.7976479265824422e-01  5.7554018341403235e-01 7.6814634998671705e-01 2.7848222554905899e-01  5.7490121717910514e-01 7.6769597546630364e-01 2.7729161740706088e-01  5.8686272292849617e-01 7.7299497053830502e-01 3.0103147344259651e-01  4.9748425024599091e-01 8.0071740140819567e-02 5.0468015181000525e-01  5.7390642771982525e-01 7.6696570640784001e-01 2.7544648547342032e-01  5.7590532914301362e-01 5.2141891092945358e-01 5.7055852565753051e-01  5.7477490062048509e-01 7.6760260700462768e-01 2.7706018456646481e-01  5.3554447723197884e-01 1.2753485308153875e-01 6.9955050571597754e-01  5.8552428394915046e-01 7.7274731557567033e-01 2.9818976302516359e-01  4.9998397432634262e-01 3.5364499546671185e-01 3.5326057799760441e-01  4.7374658921449198e-01 1.0260156661091145e-01 3.4129786398880779e-01  5.1718373646274152e-01 1.0311079665684972e-01 6.1404475056209096e-01  5.9842075678150042e-01 7.7194642537739311e-01 3.2743613775320735e-01  6.3011594713773189e-01 4.8134949940481114e-01 7.4315298398998597e-01  5.5244744116499933e-01 6.9885027896790797e-01 2.9238137767189276e-01  6.0751514244409921e-01 7.6675288376462225e-01 3.5138313099861163e-01  5.8462354734613209e-01 2.1338299439088493e-01 8.4354354314642843e-01  5.7119496186158192e-01 7.6470742383094925e-01 2.7053854212202927e-01  6.0698231031241145e-01 7.0490589394349079e-01 4.3363981459106049e-01  5.3378415326160078e-01 1.2283996037239930e-01 7.0218366499393992e-01  5.6989424282547707e-01 7.6349892844569600e-01 2.6823318046941058e-01  6.2767772620233153e-01 7.3974179383752514e-01 4.1634048076396135e-01  5.7822597184590696e-01 5.1366482802536717e-01 5.8712819637203728e-01  6.1647815308549958e-01 5.4124952930299819e-01 6.6332704139413634e-01  5.6993629894489073e-01 7.6353710752529080e-01 2.6830863936319010e-01  5.4470173431675917e-01 5.6591590900764233e-01 4.0010734122310332e-01  4.8095277400071285e-01 2.9555873417120015e-01 2.7577843634414556e-01  5.1800585868933013e-01 2.0037798868412984e-01 5.8598549605231121e-01  5.7087322739523250e-01 7.6441092399077637e-01 2.6997034956453064e-01  5.8079253713583023e-01 7.7112587502070884e-01 2.8858735398544993e-01  4.5738918714627108e-01 1.6257021160118143e-01 1.9926936915760562e-01  5.9283420153990973e-01 7.1487313758641946e-01 3.9055458164198725e-01  5.9410042777120642e-01 7.7304832230210485e-01 3.1708038439015102e-01  5.7797619847404991e-01 7.6970032524905496e-01 2.8308346640663462e-01  5.3670989055949692e-01 1.1916632456583083e-01 7.0482737256893735e-01  6.0930504821834552e-01 3.2655408905177530e-01 8.4540724319738791e-01  4.7303606180002611e-01 9.8077141469040854e-02 3.3893499165566371e-01  5.7221383375249946e-01 7.6558905390697340e-01 2.7237427147804733e-01  6.2161860109598388e-01 3.9755281873825848e-01 8.0772248509566413e-01  4.9952257885377022e-01 5.1687742687999916e-01 2.1390749689365754e-01  5.7747538148925481e-01 7.6939094942562225e-01 2.8214065867108817e-01  5.9168055404560271e-01 7.7329718587022189e-01 3.1156435908503666e-01  5.5648350031354887e-01 1.7288114974377755e-01 7.8244269538165712e-01  4.6752288591892760e-01 1.2552961716768352e-01 2.8877054043863598e-01  6.3030927358447664e-01 6.6044277656513206e-01 5.2812826958082004e-01  5.7049212280327788e-01 7.6406337181556727e-01 2.6929018387999576e-01  5.8968415206164482e-01 7.7332594672396859e-01 3.0708958984776608e-01  4.6388981498546039e-01 1.9168094980540815e-01 2.2711892067059361e-01  6.1191987050011054e-01 3.4445804850920947e-01 8.3825883018260250e-01  6.4235665487290383e-01 6.7755718235464890e-01 5.2130124564320768e-01  6.3284850647711066e-01 3.9990451150265643e-01 8.1310305124279614e-01  5.8366486922479477e-01 7.7221704672961378e-01 2.9436847479324335e-01  5.7585328257809409e-01 7.6837149250288150e-01 2.7905850394060044e-01  6.1247535846749923e-01 7.6204531015129107e-01 3.6613395582773972e-01  4.8921053254283492e-01 4.5252762904534999e-01 2.0451220075267221e-01  5.5049243532670700e-01 1.7532810708455621e-01 7.7055215191383775e-01  4.5786061674762901e-01 1.5297565186395942e-01 2.0766186634945752e-01  5.8095500451381232e-01 7.7121610598684442e-01 2.8889025063659812e-01  6.0284527054