<?xml version="1.0"?>
<VTKFile type="UnstructuredGrid"  version="0.1"  >
<UnstructuredGrid>
<Piece  NumberOfPoints="4940" NumberOfCells="9650">
<Points>
<DataArray  type="Float64"  NumberOfComponents="3"  format="ascii">500 250 0  0 250 0  250 500 0  250 0 0  256.8885856082646 499.9050767557906 0  263.7719401218049 499.6203791065173 0  270.6448364229772 499.1461232471188 0  277.5020553257866 498.4826693209355 0  284.3383895508592 497.6305211460281 0  291.1486476865662 496.5903258312597 0  297.9276581259182 495.3628732847843 0  304.6702729675493 493.9490956196674 0  311.3713719748657 492.3500664368026 0  318.0258664141369 490.5670000199653 0  324.6287029687753 488.6012504015818 0  331.1748675330201 486.4543103455647 0  337.6593890460416 484.1278102064655 0  344.0773432429536 481.6235166997244 0  350.4238564271474 478.9433315480048 0  356.694109139292 476.0892900492477 0  362.88333985546 473.0635595140469 0  368.9868485575419 469.8684376402048 0  375.0000003153078 466.5063507640667 0  380.9182288257928 462.9798520074548 0  386.7370398729688 459.2916193419558 0  392.4520147244077 455.444453565817 0  398.0588135356345 451.4412761437442 0  403.5531785622926 447.285127045646 0  408.9309374414144 442.9791624087773 0  414.1880064015299 438.5266521049243 0  419.3203932989752 433.9309773069245 0  424.324200661095 429.1956279150535 0  429.1956286596235 424.3241998957182 0  433.9309780058756 419.3203925397119 0  438.5266527445345 414.1880056671062 0  442.9791630130591 408.9309367076756 0  447.2851276060475 403.5531778422888 0  451.4412766621026 398.0588128303826 0  455.4444540361634 392.4520140460735 0  459.2916197786263 386.7370392045948 0  462.9798524073514 380.9182281752347 0  466.5063511234856 374.9999996927758 0  469.8684379657123 368.9868479560565 0  473.0635598144817 362.8833392617846 0  476.0892903190255 356.6941085676214 0  478.9433317963513 350.4238558609745 0  481.6235169154735 344.0773427117675 0  484.12781039012 337.6593885555221 0  486.4543105028062 331.1748670749914 0  488.601250531677 324.6287025528375 0  490.5670001317469 318.0258660188321 0  492.3500665291326 311.3713716102628 0  493.949095695951 304.6702726271575 0  495.3628733416623 297.9276578347343 0  496.5903258712341 291.1486474470129 0  497.6305211749058 284.3383893426084 0  498.4826693388848 277.502055163614 0  499.1461232580606 270.6448362909296 0  499.6203791109319 263.7719400417897 0  499.9050767571306 256.8885855596534 0  499.9050767559877 243.1114143988867 0  499.6203791069493 236.2280598860241 0  499.1461232485393 229.3551635941651 0  498.4826693235677 222.4979446979962 0  497.6305211491849 215.6616104719064 0  496.5903258357701 208.8513523404629 0  495.3628732906988 202.0723419043604 0  493.9490956264813 195.3297270628552 0  492.3500664487791 188.6286280724281 0  490.5670000344809 181.9741336371959 0  488.6012504175981 175.3712970824318 0  486.4543103623226 168.8251325157939 0  484.1278102222298 162.3406109960628 0  481.6235167152198 155.9226567951971 0  478.9433315621651 149.5761436051346 0  476.0892900516498 143.3058908657982 0  473.063559513628 137.1166601437124 0  469.8684376406648 131.0131514433083 0  466.5063507675389 124.9999996907064 0  462.9798520124137 119.0817711822745 0  459.2916193464549 113.2629601339176 0  455.4444535642773 107.5479852733717 0  451.4412761528674 101.9411864767781 0  447.2851270583545 96.44682145403524 0  442.9791624165781 91.06906256805769 0  438.5266521117469 85.81199360630404 0  433.9309773156125 80.67960671046254 0  429.1956279150353 75.67579933888632 0  424.3241998888952 70.80437133373906 0  419.3203925223282 66.06902197812161 0  414.1880056411937 61.47334723289828 0  408.9309366751728 57.0208369601728 0  403.5531778009394 52.71487236176898 0  398.058812796452 48.55872331295853 0  392.4520140187753 44.55554594490843 0  386.7370391799677 40.70838020528396 0  380.9182281475119 37.02014757560744 0  374.9999996718656 33.49364886444181 0  368.9868479340393 30.13156202237255 0  362.8833392380029 26.93644017348339 0  356.6941085456942 23.91070967062674 0  350.4238558420009 21.0566681953261 0  344.0773426899492 18.37648307566465 0  337.6593885328982 15.87218960140942 0  331.1748670549786 13.54568949032341 0  324.6287025315056 11.39874946165088 0  318.0258660010876 9.432999863235466 0  311.3713716017894 7.649933468721599 0  304.6702726190621 6.050904302234756 0  297.9276578269805 4.637126656823085 0  291.148647441857 3.409674127905504 0  284.3383893425031 2.369478825079682 0  277.502055159398 1.517330660648639 0  270.6448362875833 0.853876741662134 0  263.7719400401456 0.3796208889774277 0  256.8885855592052 0.09492324285704967 0  243.1114143979462 0.09492324403817065 0  236.2280598850882 0.3796208931023841 0  229.3551635938215 0.8538767514891958 0  222.4979446968584 1.517330676558146 0  215.6616104703111 2.369478851036291 0  208.8513523382973 3.409674164591252 0  202.0723419066374 4.637126708856528 0  195.3297270659513 6.050904372824903 0  188.628628074828 7.649933550613184 0  181.9741336377093 9.432999965373938 0  175.3712970793675 11.39874958336037 0  168.8251325057572 13.54568964112298 0  162.340610986655 15.87218978129263 0  155.9226567874317 18.37648328793418 0  149.576143602509 21.05666843898663 0  143.3058908718157 23.91070994551046 0  137.1166601505524 26.93644048291054 0  131.0131514451933 30.13156235831508 0  124.9999996848412 33.49364923584736 0  119.0817711715717 37.0201479941652 0  113.2629601211624 40.70838066187849 0  107.5479852622251 44.55554644345162 0  101.9411864693332 48.55872385260452 0  96.44682143286516 52.71487295812284 0  91.06906254351222 57.02083760363669 0  85.81199358272519 61.4733479087879 0  80.67960667988106 66.06902271253972 0  75.67579930062769 70.80437212218331 0  70.80437129287643 75.67580015310926 0  66.06902193673014 80.67960752263491 0  61.47334718684866 85.81199441168215 0  57.02083692524275 91.0690633672404 0  52.71487232786438 96.44682224262129 0  48.55872328070024 101.941187247437 0  44.55554591578033 107.5479860232332 0  40.7083801742321 113.2629608675606 0  37.02014754791168 119.0817718975441 0  33.49364883372994 125.000000381329 0  30.13156199866361 131.0131521097709 0  26.9364401549829 137.1166607985551 0  23.91070965524918 143.3058914868915 0  21.05666818346614 149.576144185037 0  18.37648306853811 155.9226573275967 0  15.8721895918909 162.3406114925245 0  13.54568948170046 168.8251329701392 0  11.39874945301878 175.3712974960928 0  9.432999857087736 181.9741340206533 0  7.649933466342702 188.6286284076045 0  6.050904301250966 195.3297273853278 0  4.637126656808988 202.0723421730917 0  3.409674127767772 208.8513525589684 0  2.369478824521138 215.6616106615248 0  1.517330660909465 222.4979448382452 0  0.8538767414496533 229.355163714981 0  0.3796208887135322 236.2280599646376 0  0.09492324266324204 243.1114144478261 0  0.0949232442452228 256.8885856095658 0  0.3796208935834784 263.7719401236316 0  0.8538767530323526 270.6448364248016 0  1.517330679476544 277.5020553295092 0  2.369478854618649 284.3383895555228 0  3.409674170191892 291.1486476952655 0  4.6371267162381 297.9276581311522 0  6.050904381420935 304.6702729724059 0  7.649933562385399 311.3713719716595 0  9.43299997979841 318.0258664133013 0  11.3987495994252 324.6287029719946 0  13.54568965885832 331.174867545904 0  15.87218979367188 337.6593890464085 0  18.37648329843151 344.0773432384132 0  21.05666844777872 350.423856417535 0  23.91070995156048 356.6941091410045 0  26.93644048988043 362.8833398632205 0  30.13156235982007 368.9868485575877 0  33.49364924138357 375.0000003247478 0  37.0201480006036 380.9182288389023 0  40.70838066758398 386.7370398875706 0  44.55554644477201 392.4520147396792 0  48.55872386086904 398.0588135419111 0  52.71487295981296 403.5531785693063 0  57.02083760525949 408.9309374584583 0  61.47334790862246 414.1880064170849 0  66.06902271205095 419.320393319588 0  70.80437211216579 424.3242006890749 0  75.67580013809859 429.195628692521 0  80.6796075127923 433.930978054209 0  85.81199439754931 438.5266528008431 0  91.06906334717917 442.9791630582355 0  96.44682221438322 447.2851276501571 0  101.9411872243843 451.441276702356 0  107.5479859945825 455.4444540643537 0  113.2629608446994 459.2916198108319 0  119.0817718768376 462.9798524393601 0  125.0000003647644 466.5063511567065 0  131.0131521012763 469.8684379967393 0  137.1166607840049 473.0635598376539 0  143.3058914748804 476.0892903390826 0  149.5761441732679 478.9433318113714 0  155.9226573130112 481.6235169255377 0  162.3406114779862 484.1278104026658 0  168.8251329570439 486.4543105138039 0  175.3712974805475 488.601250542119 0  181.9741340135204 490.5670001408953 0  188.6286284005059 492.3500665318597 0  195.3297273788229 493.9490956972913 0  202.0723421640089 495.3628733414168 0  208.8513525529672 496.5903258712308 0  215.6616106544547 497.6305211744985 0  222.4979448327038 498.4826693384772 0  229.3551637102845 499.1461232581612 0  236.2280599621369 499.6203791111485 0  243.1114144470173 499.9050767573145 0  155.2373389820306 474.8197567317462 0  25.36256300907667 153.9152755065208 0  432.3709625126712 412.6214396304305 0  6.013151705810699 246.637913163471 0  246.6379131630491 493.986848294322 0  338.6995838441862 22.68244767887072 0  477.3175523131281 338.6995838660569 0  493.9868482700757 246.6379131399102 0  246.6201155078769 6.218451882810491 0  417.6179310263282 72.7156044707053 0  102.2232990934413 445.0100869616822 0  63.66330858966404 92.20354579482142 0  391.3105220491464 50.73522820883105 0  72.79295043967942 418.0702734974704 0  448.290574428537 108.25674339002 0  402.4604651193511 440.7462829841712 0  97.55317348421397 59.11376320116034 0  136.7376477664901 33.58246472647134 0  363.3288394375288 465.6947312928271 0  44.0678766556007 381.0860953771871 0  469.6905266180034 142.3890690100806 0  22.68244791668644 338.6995843487432 0  338.699584349159 477.317552078365 0  173.389488083762 18.6681884918202 0  483.4809734778481 179.7121987795732 0  13.50237455842738 306.4709525540879 0  305.9825168523021 487.24416992
[...]
<PointData  Vectors="f_12"> 
<DataArray  type="Float64"  Name="f_12"  NumberOfComponents="3" format="ascii">5.8293441730854334e-01 7.7204397002838876e-01 2.9281200262093909e-01  6.4177645916073689e-01 6.9445135971471783e-01 4.9705555636628029e-01  5.5538572938769903e-01 7.4433020141784867e-01 2.4437826735500379e-01  5.0007845237197646e-01 5.5433680529054052e-01 1.7828725292112568e-01  5.5480947099849653e-01 7.4334235466376297e-01 2.4349763945714309e-01  5.5429457265776427e-01 7.4244211620161171e-01 2.4271584795567627e-01  5.5378605830605110e-01 7.4154035225167758e-01 2.4194604053797622e-01  5.5332861144717260e-01 7.4071708351964671e-01 2.4125729229719076e-01  5.5290178566415182e-01 7.3993822398318609e-01 2.4061744391335285e-01  5.5250897727234305e-01 7.3921278546909930e-01 2.4003021210996220e-01  5.5214891681704392e-01 7.3854064301889444e-01 2.3949381345498827e-01  5.5181653325737923e-01 7.3791397023603889e-01 2.3899999347849835e-01  5.5151637617568683e-01 7.3734280738774460e-01 2.3855516239430974e-01  5.5125121182839465e-01 7.3683413756896909e-01 2.3816340154378923e-01  5.5105501670347201e-01 7.3645371881881749e-01 2.3787517485274029e-01  5.5081816703094866e-01 7.3599549291865995e-01 2.3752495415112795e-01  5.5070889604058471e-01 7.3578003359641309e-01 2.3736577417512453e-01  5.5057220649191896e-01 7.3551293596882472e-01 2.3716453216841568e-01  5.5048143842759667e-01 7.3533456893949511e-01 2.3703150309985663e-01  5.5041704594222651e-01 7.3520836716447469e-01 2.3693667363471690e-01  5.5037270422916795e-01 7.3512211701345453e-01 2.3686977991670188e-01  5.5039297060213610e-01 7.3516195076938551e-01 2.3689972656666611e-01  5.5044975782911176e-01 7.3527380507686324e-01 2.3698378183557792e-01  5.5049823307631518e-01 7.3537100714451009e-01 2.3705311275393362e-01  5.5058354430803935e-01 7.3554074888918897e-01 2.3717663774729356e-01  5.5072160098990075e-01 7.3581182530582001e-01 2.3737902603786748e-01  5.5092080913267483e-01 7.3619976052271729e-01 2.3767248509483502e-01  5.5110636591171669e-01 7.3656156643658521e-01 2.3794413332819048e-01  5.5131924838453206e-01 7.3697424163928971e-01 2.3825617384893724e-01  5.5160906305148305e-01 7.3752946752061133e-01 2.3868440982333677e-01  5.5189726735818712e-01 7.3807878772807634e-01 2.3911000755976008e-01  5.5222813184686392e-01 7.3870239948751981e-01 2.3960062527156464e-01  5.5259625585252670e-01 7.3938947054233495e-01 2.4014849277680272e-01  5.5297538736638430e-01 7.4009054837456312e-01 2.4071328546569415e-01  5.5343029135240418e-01 7.4091839257012293e-01 2.4139585701236241e-01  5.5390907301847436e-01 7.4177877400292092e-01 2.4211689029773123e-01  5.5438513201991779e-01 7.4262442291052799e-01 2.4283390549226971e-01  5.5493300405340418e-01 7.4357950860650290e-01 2.4366534442167229e-01  5.5555721224103261e-01 7.4464531793801580e-01 2.4462101263260277e-01  5.5618970370542231e-01 7.4570615546439234e-01 2.4559283888733893e-01  5.5682235896941268e-01 7.4674837712139230e-01 2.4656788599970664e-01  5.5752910279863277e-01 7.4788419792458816e-01 2.4766656781318136e-01  5.5831370718237783e-01 7.4911376510903727e-01 2.4889585931542599e-01  5.5911776629362320e-01 7.5034113719017625e-01 2.5016362365156075e-01  5.5998464066172615e-01 7.5162451398080443e-01 2.5154360803282572e-01  5.6090303787650619e-01 7.5294258279473636e-01 2.5301644596076511e-01  5.6186587330435100e-01 7.5427817833399524e-01 2.5457375243679414e-01  5.6286734016780637e-01 7.5561894499989812e-01 2.5620902743240287e-01  5.6398224197033231e-01 7.5704446630440936e-01 2.5805114918441080e-01  5.6513951880324897e-01 7.5846269254404164e-01 2.5998284985482617e-01  5.6634956676028780e-01 7.5986940631005984e-01 2.6202733225386360e-01  5.6763765996703852e-01 7.6129195734854682e-01 2.6422956029877731e-01  5.6897560970328964e-01 7.6268030584737212e-01 2.6654643745694678e-01  5.7043013739618265e-01 7.6408930112386841e-01 2.6910468035612362e-01  5.7195003539938738e-01 7.6545334470887694e-01 2.7181695649281018e-01  5.7352633003232167e-01 7.6675294829864638e-01 2.7467313144777705e-01  5.7521303898673082e-01 7.6800931683181850e-01 2.7778576139874139e-01  5.7697959437261881e-01 7.6918276268690078e-01 2.8110702022504797e-01  5.7882125172716969e-01 7.7026125245850019e-01 2.8462062192209775e-01  5.8068183690279751e-01 7.7121378855488776e-01 2.8824818282838166e-01  5.8503752978384249e-01 7.7270915024707887e-01 2.9709277314742011e-01  5.8727168906227090e-01 7.7316331110230707e-01 3.0179335628762327e-01  5.8956909791368139e-01 7.7338978026483252e-01 3.0677103648004128e-01  5.9205516335245778e-01 7.7337139324807680e-01 3.1230507074637126e-01  5.9462457817898529e-01 7.7305504628922284e-01 3.1822096490473595e-01  5.9730051936052853e-01 7.7241676578384511e-01 3.2458377956348888e-01  6.0006754179258825e-01 7.7139382673051637e-01 3.3143069823245258e-01  6.0294582274405650e-01 7.6995036054780297e-01 3.3884173501352938e-01  6.0590242737880706e-01 7.6805397633108985e-01 3.4678821409072341e-01  6.0892232634831700e-01 7.6566571699195518e-01 3.5529343637004790e-01  6.1207613973303443e-01 7.6264500905922605e-01 3.6465976041109732e-01  6.1525369415671982e-01 7.5905097167025093e-01 3.7462813647685600e-01  6.1847848065710431e-01 7.5478356169445238e-01 3.8536778038063102e-01  6.2178010054585497e-01 7.4968820346494758e-01 3.9714227515479594e-01  6.2510305764440177e-01 7.4374575915625218e-01 4.0988950306437694e-01  6.2840523039118568e-01 7.3688998951969698e-01 4.2365036091963582e-01  6.3166783723740971e-01 7.2903937851235967e-01 4.3851187295105648e-01  6.3485168373715395e-01 7.2006489449960398e-01 4.5460450802433650e-01  6.3793013239620888e-01 7.0980190919444519e-01 4.7211364274075684e-01  6.4085081639569008e-01 6.9817012428149761e-01 4.9106426768326961e-01  6.4351239092538792e-01 6.8529178857615192e-01 5.1115998652844996e-01  6.4593601476320583e-01 6.7032755428249036e-01 5.3348819379641854e-01  6.4796899755958348e-01 6.5355144759832462e-01 5.5743548841951640e-01  6.4955117854859257e-01 6.3455263272761264e-01 5.8336342932082907e-01  6.5054755271029563e-01 6.1314983372689513e-01 6.1116892253538924e-01  6.5082612961224418e-01 5.8905687607797474e-01 6.4081505758773372e-01  6.5023384412692453e-01 5.6193910088736887e-01 6.7217825011410537e-01  6.4859516076903834e-01 5.3151897090403211e-01 7.0490016596909089e-01  6.4572410688182957e-01 4.9756121139930648e-01 7.3829880473950682e-01  6.4139243836181237e-01 4.5993338250809312e-01 7.7131378894235769e-01  6.3542698412897625e-01 4.1884170182648772e-01 8.0228167230239245e-01  6.2772015937115455e-01 3.7502165861620690e-01 8.2874430145301170e-01  6.1830052891932874e-01 3.2974145559410162e-01 8.4823934505631504e-01  6.0702458543395577e-01 2.8378686951926230e-01 8.5751497043471370e-01  5.9397526968420034e-01 2.3869728968086770e-01 8.5380323557047066e-01  5.7986552172188432e-01 1.9759664269293625e-01 8.3574899947302572e-01  5.6428942967074747e-01 1.6045516268068838e-01 8.0001370147935402e-01  5.4668264040034065e-01 1.2756297042618428e-01 7.4243086759642207e-01  5.2799679483511530e-01 1.0130581241793174e-01 6.6557004047275281e-01  5.0983987538070530e-01 8.5323442542709169e-02 5.7366954451053720e-01  4.9454736017124362e-01 7.9508633478378096e-02 4.8528750585794372e-01  4.8691880445514085e-01 7.8583649689539611e-02 4.3892958545709176e-01  4.8498542441219283e-01 7.8983975064736742e-02 4.2712763032601342e-01  4.9102323151258320e-01 7.9498802012198166e-02 4.6597148557598356e-01  5.0936774235917870e-01 8.8328553346314981e-02 5.7526530678976007e-01  5.4722652466342669e-01 1.3344750151914700e-01 7.5625510412161778e-01  5.9920934496606770e-01 2.7346434389423474e-01 8.6155553927750939e-01  6.3553840931323480e-01 4.8777920166776007e-01 7.4150031625989532e-01  6.3634860141929050e-01 6.5871358816145020e-01 5.3829112588780792e-01  6.1091575788380392e-01 7.4907634684063185e-01 3.8090274208030833e-01  5.7928604239191184e-01 7.6928454267331725e-01 2.8895196803129281e-01  5.5434594514956781e-01 7.4302299795860294e-01 2.4392326726045954e-01  5.3695041220061446e-01 7.0345571073987889e-01 2.1908479008147688e-01  5.2395365548298456e-01 6.6204588908024720e-01 2.0304679649713009e-01  5.1397382644201361e-01 6.2215998093199298e-01 1.9186482615386619e-01  5.0615080930278822e-01 5.8588206756104833e-01 1.8396793272461520e-01  4.9561620819034069e-01 5.2901922939643165e-01 1.7466896378326108e-01  4.9125661808184434e-01 5.0328480959838429e-01 1.7102435173220440e-01  4.8874665089985564e-01 4.8707592307698433e-01 1.6927531930643927e-01  4.8667298234974821e-01 4.7343679747344702e-01 1.6792092581751303e-01  4.8516335999777366e-01 4.6328984751529340e-01 1.6694809648462972e-01  4.8425385372875746e-01 4.5703000159076163e-01 1.6641494693854600e-01  4.8386172674936295e-01 4.5430519068115255e-01 1.6618508649515340e-01  4.8390733786856022e-01 4.5462478655612665e-01 1.6621134829503603e-01  4.8444069865815015e-01 4.5831045554062716e-01 1.6652603374589572e-01  4.8522658981665823e-01 4.6374875161441709e-01 1.6698217393859008e-01  4.8688289725832234e-01 4.7486969665311829e-01 1.6804046509840653e-01  4.8902966612038362e-01 4.8886457829855984e-01 1.6950100420276007e-01  4.9181002660789946e-01 5.0636632821807903e-01 1.7155118651863294e-01  4.9520215565100656e-01 5.2682179418176167e-01 1.7415305157793162e-01  4.9955405354075255e-01 5.5151910292992634e-01 1.7778987444434532e-01  5.0512123563702171e-01 5.8077268777440472e-01 1.8288281522571692e-01  5.1187472311575999e-01 6.1296652137228880e-01 1.8958102204485014e-01  5.2010931220891754e-01 6.4760577831356891e-01 1.9840268054738897e-01  5.3019593173969437e-01 6.8345873678088209e-01 2.1020703053727713e-01  5.4266179562625605e-01 7.1874299612220438e-01 2.2638732655270957e-01  5.5864812847164980e-01 7.4968329431966296e-01 2.5049651665151657e-01  5.7871492926640933e-01 7.6931359650591724e-01 2.8683463320518199e-01  6.0265546148792060e-01 7.6568471064285781e-01 3.4448376724855884e-01  6.2676778725719640e-01 7.2621524013215344e-01 4.3507046007181660e-01  6.4271748016636310e-01 6.4582053499917313e-01 5.6021258419307751e-01  6.4325946165509751e-01 5.2946721041293443e-01 7.0110323458421164e-01  6.2864545781862258e-01 3.9851169273992892e-01 8.1394162506486056e-01  6.0747598801642433e-01 2.9070938956634057e-01 8.6114575533470972e-01  5.8985649142775465e-01 2.2659307670503823e-01 8.5663084930695643e-01  5.8088506143593610e-01 1.9974035675604229e-01 8.4256386269515138e-01  5.7975493178962600e-01 1.9652329546193287e-01 8.3892916556757768e-01  5.8448215728972230e-01 2.0924144255460195e-01 8.4471256207476975e-01  5.9161270026723900e-01 2.2963780741400575e-01 8.5291727842453835e-01  6.0004954744962014e-01 2.5609254862141495e-01 8.5911958400553579e-01  6.0620254743736945e-01 2.7934180940639036e-01 8.5686221265797080e-01  6.1170019201791881e-01 3.0051529192455417e-01 8.5506219948928364e-01  6.1678390438364084e-01 3.2184945414907584e-01 8.5005983953305586e-01  6.2174513445144231e-01 3.4418504037282766e-01 8.4262988175719544e-01  6.2667653169156512e-01 3.6821782347231236e-01 8.3201167508548624e-01  6.3143977568463150e-01 3.9365235647639679e-01 8.1815109968101329e-01  6.3562649427282014e-01 4.1840584718195256e-01 8.0252382492984475e-01  6.3936239862643240e-01 4.4325750277220832e-01 7.8449795143992840e-01  6.4274255954214654e-01 4.6880045077098081e-01 7.6390471691930928e-01  6.4546860738062306e-01 4.9296370536458123e-01 7.4259458275562140e-01  6.4759335974825238e-01 5.1585659354818281e-01 7.2075120743350862e-01  6.4918716232021523e-01 5.3764738503131004e-01 6.9858045529777113e-01  6.5028948318551583e-01 5.5877863032280861e-01 6.7579118050861497e-01  6.5083316387094159e-01 5.7739101533570025e-01 6.5462748820349770e-01  6.5097419677218316e-01 5.9519771833138668e-01 6.3350541782085812e-01  6.5072990904831507e-01 6.1146462116893896e-01 6.1337496991724938e-01  6.5012661035962516e-01 6.2686126615415194e-01 5.9360532200066540e-01  6.4924322827651992e-01 6.4075509833110755e-01 5.7512852697885641e-01  6.4811425644522425e-01 6.5334256592375806e-01 5.5783115447083842e-01  6.4677063880003294e-01 6.6495458838230603e-01 5.4136966691695187e-01  6.4524032168959755e-01 6.7565798061520033e-01 5.2573463038792345e-01  6.4356835444310245e-01 6.8546675705263171e-01 5.1097469828497188e-01  6.3989475204044566e-01 7.0264356770580982e-01 4.8398389753749527e-01  6.3793953016196592e-01 7.1011655742946356e-01 4.7169234062955601e-01  6.3590371634657850e-01 7.1702538632361390e-01 4.5997531807908199e-01  6.3383504648546241e-01 7.2330925509368804e-01 4.4897142860402067e-01  6.3173644044284571e-01 7.2904134424861056e-01 4.3859344007045153e-01  6.2961943049507918e-01 7.3426598099817408e-01 4.2879762993431736e-01  6.2749009163449698e-01 7.3902692095292066e-01 4.1953280987999253e-01  6.2536350433064269e-01 7.4334808288478538e-01 4.1078667021201537e-01  6.2324126413032455e-01 7.4727017697118714e-01 4.0250655391340773e-01  6.2112950614470686e-01 7.5082124202940503e-01 3.9466220980574201e-01  6.1903162285759927e-01 7.5402622780238360e-01 3.8722393275374506e-01  6.1697328848951749e-01 7.5688909587113384e-01 3.8022515927457662e-01  6.1490755066730118e-01 7.5949394344601939e-01 3.7347869951061075e-01  6.1286789646425011e-01 7.6181968207991424e-01 3.6706592275027533e-01  6.1087633537142449e-01 7.6385941283705683e-01 3.6103011394028450e-01  6.0886382083237156e-01 7.6570361897378547e-01 3.5513496923822907e-01  6.0688956735703481e-01 7.6730835782351459e-01 3.4953838063567189e-01  6.0498963158872288e-01 7.6866360424005253e-01 3.4431619656645590e-01  6.0309499617742790e-01 7.6983317220589065e-01 3.3926645702534547e-01  6.0123305657051274e-01 7.7082183398955917e-01 3.3442941028730294e-01  5.9939833406524157e-01 7.7163354395573713e-01 3.2979186037181280e-01  5.9759574800329840e-01 7.7227575851864838e-01 3.2535306490413618e-01  5.9581853348353819e-01 7.7276445328563526e-01 3.2107954239038222e-01  5.9406298581041650e-01 7.7310471211852250e-01 3.1695680376766122e-01  5.9236413900784401e-01 7.7330001009241989e-01 3.1305815160349315e-01  5.9068460844567172e-01 7.7336352027692279e-01 3.0928511270244424e-01  5.8902586802135626e-01 7.7330566986811511e-01 3.0563319952771362e-01  5.8742916015754609e-01 7.7312797097827279e-01 3.0219129206638057e-01  5.8584068238642661e-01 7.7283797038178770e-01 2.9883177476888112e-01  5.8428560325563927e-01 7.7244597439712459e-01 2.9559914924298236e-01  5.8277118021855723e-01 7.7195808557940770e-01 2.9250882311588650e-01  5.8128823053285361e-01 7.7137871177505168e-01 2.8953402272173434e-01  5.7983949457407991e-01 7.7071571176466958e-01 2.8667522149857988e-01  5.7841681847900184e-01 7.6997044185925390e-01 2.8391251508624943e-01  5.7701158184984369e-01 7.6914380528692061e-01 2.8122345986179442e-01  5.7567165241985363e-01 7.6826965882012233e-01 2.7869829233091847e-01  5.7437022180663200e-01 7.6733805075340777e-01 2.7628159301589017e-01  5.7306046566153446e-01 7.6632270737188168e-01 2.7387914534750157e-01  5.7180855948981835e-01 7.6527523074415382e-01 2.7161480910228869e-01  5.7060671722869361e-01 7.6419695097498885e-01 2.6947053950984429e-01  5.6942553273921870e-01 7.6307087104566662e-01 2.6738658692443124e-01  5.6828382048918247e-01 7.6191830152772722e-01 2.6539535992367003e-01  5.6716272947079738e-01 7.6072424321189702e-01 2.6346270037241487e-01  5.6610327087313883e-01 7.5953895495164647e-01 2.6165493919428667e-01  5.6505997636332006e-01 7.5831687452872132e-01 2.5989427699028089e-01  5.6406179817605973e-01 7.5709657872805913e-01 2.5822680825282407e-01  5.6309081194471866e-01 7.5586134308847130e-01 2.5661823537556722e-01  5.6214275625579668e-01 7.5461033057497895e-01 2.5506132318360802e-01  5.6125482264448179e-01 7.5339537095665710e-01 2.5361972922777626e-01  5.6040763116933534e-01 7.5219726143137533e-01 2.5225471194520610e-01  5.5957094287532283e-01 7.5097958330129111e-01 2.5091575765160601e-01  5.5878518959204448e-01 7.4980162323215216e-01 2.4966884832439137e-01  5.5804463458434583e-01 7.4866134352707170e-01 2.4850345889279937e-01  5.5733088002534259e-01 7.4753479931321198e-01 2.4738625011116919e-01  5.5664798023268980e-01 7.4643335134714994e-01 2.4632419074657938e-01  5.5601274758121744e-01 7.4538480853695177e-01 2.4534250030664928e-01  5.6801156148554666e-01 7.6162342021168539e-01 2.6493559213269335e-01  6.3944658212188021e-01 4.4443403518848063e-01 7.8369419134382201e-01  5.5355980203616517e-01 7.4114196234311880e-01 2.4160223880495615e-01  6.4296392515734979e-01 6.8849576248841449e-01 5.0630249090276147e-01  5.5602051435363020e-01 7.4538913556166198e-01 2.4536405979779080e-01  4.7510427088378993e-01 1.0196668073337203e-01 3.5013121804928449e-01  5.6283615637456519e-01 7.5555433670742511e-01 2.5618181020380315e-01  5.8446984992326689e-01 7.7253965721772200e-01 2.9595495423048057e-01  4.9905562703458461e-01 5.4863537117651306e-01 1.7759107782298214e-01  6.4306800890053506e-01 4.7391804584027158e-01 7.5947415867165358e-01  5.7943113854990203e-01 7.7049994530930865e-01 2.8589055449780371e-01  5.5239517483053635e-01 1.4410034524984930e-01 7.6515474970963027e-01  5.9595185966318842e-01 2.4513487458124403e-01 8.5608725903488492e-01  5.8848043752570356e-01 7.7324292169940512e-01 3.0446865947075125e-01  6.4726316757104796e-01 6.5971012289032427e-01 5.4875559977350163e-01  5.5153033795581219e-01 7.3736784644115783e-01 2.3857958162336276e-01  6.3639277670867911e-01 6.3392330809649367e-01 5.7225741379416317e-01  5.1796172678455077e-01 6.3868712563432817e-01 1.9635781854614182e-01  5.5073659636233541e-01 7.3583007091748698e-01 2.3741435108742712e-01  6.0051287679901433e-01 7.7114024718209229e-01 3.3261928633815308e-01  6.3050509131883947e-01 7.3188235207166508e-01 4.3318110353403333e-01  6.1423476957932455e-01 7.6026457826445015e-01 3.7137322174478593e-01  5.5095140991054004e-01 7.3624494991912881e-01 2.3773104116342994e-01  4.8938321800839324e-01 4.9103352860323063e-01 1.6987688809606663e-01  6.1138006228894426e-01 7.6330986857157268e-01 3.6262148187526799e-01  6.2476607113595806e-01 7.4442387053401682e-01 4.0850566321052445e-01  5.5204381280103987e-01 7.3833322184986372e-01 2.3934780302164788e-01  5.6201206987398933e-01 7.5442475500804917e-01 2.5486068028632042e-01  6.5088010906623117e-01 5.8324981070938975e-01 6.4776469693612893e-01  6.2879459687767714e-01 6.7809452557358396e-01 5.0377110323595142e-01  5.7020613452175262e-01 7.6385813073235120e-01 2.6873468606175510e-01  5.5674579414434455e-01 7.4660695432193980e-01 2.4646560195482045e-01  4.8487695059539632e-01 4.6117950722982898e-01 1.6688353784618262e-01  5.9942119676683558e-01 7.7161624912761873e-01 3.2987098620867233e-01  6.3313794085764397e-01 7.2520341678424083e-01 4.4555256639569152e-01  5.5343233208097997e-01 7.4089479093908062e-01 2.4142332264299385e-01  5.2556702523810295e-01 1.0213640959025458e-01 6.5149967909809736e-01  6.1455176708550807e-01 3.1370030898782997e-01 8.5236588749448172e-01  5.5871119426185756e-01 7.4967904820287612e-01 2.4956304515008970e-01  5.7278529697946146e-01 7.6609131668305108e-01 2.7339136131676578e-01  6.4877848529062043e-01 6.4587291607362751e-01 5.6813452702760525e-01  5.3406863621528333e-01 6.9459609863766392e-01 2.1605026911463984e-01  5.7643291449340206e-01 7.6880499927003199e-01 2.8010706260962015e-01  5.5112810357849495e-01 7.3658872850295498e-01 2.3799170288944060e-01  5.6630069402241723e-01 7.5979199679424003e-01 2.6197188017745837e-01  4.8844318326789049e-01 4.8491887244732479e-01 1.6922346013698308e-01  5.4250177516335196e-01 1.3890739792028958e-01 7.3562951651936359e-01  5.9154490724573161e-01 7.7335595358929399e-01 3.1121218299234943e-01  6.5049195002502536e-01 5.7123329001043366e-01 6.6165438735839766e-01  5.6486163265836264e-01 7.5806590236005167e-01 2.5957389755128940e-01  5.5513304395551233e-01 7.4390900462166998e-01 2.4398834042645146e-01  5.9349763132356326e-01 7.7316487335017048e-01 3.1567532651523944e-01  5.7480509999219787e-01 7.6368937087433775e-01 2.8296149176416491e-01  6.0613623101581293e-01 7.6784554586894116e-01 3.4748002798252364e-01  6.4802063147289590e-01 5.2201210690378208e-01 7.1462100226759140e-01  5.5913986568190976e-01 7.5035872952494431e-01 2.5021676808664434e-01  5.8384530674