<?xml version="1.0"?>
<VTKFile type="UnstructuredGrid"  version="0.1"  >
<UnstructuredGrid>
<Piece  NumberOfPoints="4940" NumberOfCells="9650">
<Points>
<DataArray  type="Float64"  NumberOfComponents="3"  format="ascii">500 250 0  0 250 0  250 500 0  250 0 0  256.8885856082646 499.9050767557906 0  263.7719401218049 499.6203791065173 0  270.6448364229772 499.1461232471188 0  277.5020553257866 498.4826693209355 0  284.3383895508592 497.6305211460281 0  291.1486476865662 496.5903258312597 0  297.9276581259182 495.3628732847843 0  304.6702729675493 493.9490956196674 0  311.3713719748657 492.3500664368026 0  318.0258664141369 490.5670000199653 0  324.6287029687753 488.6012504015818 0  331.1748675330201 486.4543103455647 0  337.6593890460416 484.1278102064655 0  344.0773432429536 481.6235166997244 0  350.4238564271474 478.9433315480048 0  356.694109139292 476.0892900492477 0  362.88333985546 473.0635595140469 0  368.9868485575419 469.8684376402048 0  375.0000003153078 466.5063507640667 0  380.9182288257928 462.9798520074548 0  386.7370398729688 459.2916193419558 0  392.4520147244077 455.444453565817 0  398.0588135356345 451.4412761437442 0  403.5531785622926 447.285127045646 0  408.9309374414144 442.9791624087773 0  414.1880064015299 438.5266521049243 0  419.3203932989752 433.9309773069245 0  424.324200661095 429.1956279150535 0  429.1956286596235 424.3241998957182 0  433.9309780058756 419.3203925397119 0  438.5266527445345 414.1880056671062 0  442.9791630130591 408.9309367076756 0  447.2851276060475 403.5531778422888 0  451.4412766621026 398.0588128303826 0  455.4444540361634 392.4520140460735 0  459.2916197786263 386.7370392045948 0  462.9798524073514 380.9182281752347 0  466.5063511234856 374.9999996927758 0  469.8684379657123 368.9868479560565 0  473.0635598144817 362.8833392617846 0  476.0892903190255 356.6941085676214 0  478.9433317963513 350.4238558609745 0  481.6235169154735 344.0773427117675 0  484.12781039012 337.6593885555221 0  486.4543105028062 331.1748670749914 0  488.601250531677 324.6287025528375 0  490.5670001317469 318.0258660188321 0  492.3500665291326 311.3713716102628 0  493.949095695951 304.6702726271575 0  495.3628733416623 297.9276578347343 0  496.5903258712341 291.1486474470129 0  497.6305211749058 284.3383893426084 0  498.4826693388848 277.502055163614 0  499.1461232580606 270.6448362909296 0  499.6203791109319 263.7719400417897 0  499.9050767571306 256.8885855596534 0  499.9050767559877 243.1114143988867 0  499.6203791069493 236.2280598860241 0  499.1461232485393 229.3551635941651 0  498.4826693235677 222.4979446979962 0  497.6305211491849 215.6616104719064 0  496.5903258357701 208.8513523404629 0  495.3628732906988 202.0723419043604 0  493.9490956264813 195.3297270628552 0  492.3500664487791 188.6286280724281 0  490.5670000344809 181.9741336371959 0  488.6012504175981 175.3712970824318 0  486.4543103623226 168.8251325157939 0  484.1278102222298 162.3406109960628 0  481.6235167152198 155.9226567951971 0  478.9433315621651 149.5761436051346 0  476.0892900516498 143.3058908657982 0  473.063559513628 137.1166601437124 0  469.8684376406648 131.0131514433083 0  466.5063507675389 124.9999996907064 0  462.9798520124137 119.0817711822745 0  459.2916193464549 113.2629601339176 0  455.4444535642773 107.5479852733717 0  451.4412761528674 101.9411864767781 0  447.2851270583545 96.44682145403524 0  442.9791624165781 91.06906256805769 0  438.5266521117469 85.81199360630404 0  433.9309773156125 80.67960671046254 0  429.1956279150353 75.67579933888632 0  424.3241998888952 70.80437133373906 0  419.3203925223282 66.06902197812161 0  414.1880056411937 61.47334723289828 0  408.9309366751728 57.0208369601728 0  403.5531778009394 52.71487236176898 0  398.058812796452 48.55872331295853 0  392.4520140187753 44.55554594490843 0  386.7370391799677 40.70838020528396 0  380.9182281475119 37.02014757560744 0  374.9999996718656 33.49364886444181 0  368.9868479340393 30.13156202237255 0  362.8833392380029 26.93644017348339 0  356.6941085456942 23.91070967062674 0  350.4238558420009 21.0566681953261 0  344.0773426899492 18.37648307566465 0  337.6593885328982 15.87218960140942 0  331.1748670549786 13.54568949032341 0  324.6287025315056 11.39874946165088 0  318.0258660010876 9.432999863235466 0  311.3713716017894 7.649933468721599 0  304.6702726190621 6.050904302234756 0  297.9276578269805 4.637126656823085 0  291.148647441857 3.409674127905504 0  284.3383893425031 2.369478825079682 0  277.502055159398 1.517330660648639 0  270.6448362875833 0.853876741662134 0  263.7719400401456 0.3796208889774277 0  256.8885855592052 0.09492324285704967 0  243.1114143979462 0.09492324403817065 0  236.2280598850882 0.3796208931023841 0  229.3551635938215 0.8538767514891958 0  222.4979446968584 1.517330676558146 0  215.6616104703111 2.369478851036291 0  208.8513523382973 3.409674164591252 0  202.0723419066374 4.637126708856528 0  195.3297270659513 6.050904372824903 0  188.628628074828 7.649933550613184 0  181.9741336377093 9.432999965373938 0  175.3712970793675 11.39874958336037 0  168.8251325057572 13.54568964112298 0  162.340610986655 15.87218978129263 0  155.9226567874317 18.37648328793418 0  149.576143602509 21.05666843898663 0  143.3058908718157 23.91070994551046 0  137.1166601505524 26.93644048291054 0  131.0131514451933 30.13156235831508 0  124.9999996848412 33.49364923584736 0  119.0817711715717 37.0201479941652 0  113.2629601211624 40.70838066187849 0  107.5479852622251 44.55554644345162 0  101.9411864693332 48.55872385260452 0  96.44682143286516 52.71487295812284 0  91.06906254351222 57.02083760363669 0  85.81199358272519 61.4733479087879 0  80.67960667988106 66.06902271253972 0  75.67579930062769 70.80437212218331 0  70.80437129287643 75.67580015310926 0  66.06902193673014 80.67960752263491 0  61.47334718684866 85.81199441168215 0  57.02083692524275 91.0690633672404 0  52.71487232786438 96.44682224262129 0  48.55872328070024 101.941187247437 0  44.55554591578033 107.5479860232332 0  40.7083801742321 113.2629608675606 0  37.02014754791168 119.0817718975441 0  33.49364883372994 125.000000381329 0  30.13156199866361 131.0131521097709 0  26.9364401549829 137.1166607985551 0  23.91070965524918 143.3058914868915 0  21.05666818346614 149.576144185037 0  18.37648306853811 155.9226573275967 0  15.8721895918909 162.3406114925245 0  13.54568948170046 168.8251329701392 0  11.39874945301878 175.3712974960928 0  9.432999857087736 181.9741340206533 0  7.649933466342702 188.6286284076045 0  6.050904301250966 195.3297273853278 0  4.637126656808988 202.0723421730917 0  3.409674127767772 208.8513525589684 0  2.369478824521138 215.6616106615248 0  1.517330660909465 222.4979448382452 0  0.8538767414496533 229.355163714981 0  0.3796208887135322 236.2280599646376 0  0.09492324266324204 243.1114144478261 0  0.0949232442452228 256.8885856095658 0  0.3796208935834784 263.7719401236316 0  0.8538767530323526 270.6448364248016 0  1.517330679476544 277.5020553295092 0  2.369478854618649 284.3383895555228 0  3.409674170191892 291.1486476952655 0  4.6371267162381 297.9276581311522 0  6.050904381420935 304.6702729724059 0  7.649933562385399 311.3713719716595 0  9.43299997979841 318.0258664133013 0  11.3987495994252 324.6287029719946 0  13.54568965885832 331.174867545904 0  15.87218979367188 337.6593890464085 0  18.37648329843151 344.0773432384132 0  21.05666844777872 350.423856417535 0  23.91070995156048 356.6941091410045 0  26.93644048988043 362.8833398632205 0  30.13156235982007 368.9868485575877 0  33.49364924138357 375.0000003247478 0  37.0201480006036 380.9182288389023 0  40.70838066758398 386.7370398875706 0  44.55554644477201 392.4520147396792 0  48.55872386086904 398.0588135419111 0  52.71487295981296 403.5531785693063 0  57.02083760525949 408.9309374584583 0  61.47334790862246 414.1880064170849 0  66.06902271205095 419.320393319588 0  70.80437211216579 424.3242006890749 0  75.67580013809859 429.195628692521 0  80.6796075127923 433.930978054209 0  85.81199439754931 438.5266528008431 0  91.06906334717917 442.9791630582355 0  96.44682221438322 447.2851276501571 0  101.9411872243843 451.441276702356 0  107.5479859945825 455.4444540643537 0  113.2629608446994 459.2916198108319 0  119.0817718768376 462.9798524393601 0  125.0000003647644 466.5063511567065 0  131.0131521012763 469.8684379967393 0  137.1166607840049 473.0635598376539 0  143.3058914748804 476.0892903390826 0  149.5761441732679 478.9433318113714 0  155.9226573130112 481.6235169255377 0  162.3406114779862 484.1278104026658 0  168.8251329570439 486.4543105138039 0  175.3712974805475 488.601250542119 0  181.9741340135204 490.5670001408953 0  188.6286284005059 492.3500665318597 0  195.3297273788229 493.9490956972913 0  202.0723421640089 495.3628733414168 0  208.8513525529672 496.5903258712308 0  215.6616106544547 497.6305211744985 0  222.4979448327038 498.4826693384772 0  229.3551637102845 499.1461232581612 0  236.2280599621369 499.6203791111485 0  243.1114144470173 499.9050767573145 0  155.2373389820306 474.8197567317462 0  25.36256300907667 153.9152755065208 0  432.3709625126712 412.6214396304305 0  6.013151705810699 246.637913163471 0  246.6379131630491 493.986848294322 0  338.6995838441862 22.68244767887072 0  477.3175523131281 338.6995838660569 0  493.9868482700757 246.6379131399102 0  246.6201155078769 6.218451882810491 0  417.6179310263282 72.7156044707053 0  102.2232990934413 445.0100869616822 0  63.66330858966404 92.20354579482142 0  391.3105220491464 50.73522820883105 0  72.79295043967942 418.0702734974704 0  448.290574428537 108.25674339002 0  402.4604651193511 440.7462829841712 0  97.55317348421397 59.11376320116034 0  136.7376477664901 33.58246472647134 0  363.3288394375288 465.6947312928271 0  44.0678766556007 381.0860953771871 0  469.6905266180034 142.3890690100806 0  22.68244791668644 338.6995843487432 0  338.699584349159 477.317552078365 0  173.389488083762 18.6681884918202 0  483.4809734778481 179.7121987795732 0  13.50237455842738 306.4709525540879 0  305.9825168523021 487.24416992
[...]
<PointData  Vectors="f_12"> 
<DataArray  type="Float64"  Name="f_12"  NumberOfComponents="3" format="ascii">5.6147375071436245e-01 2.9078423575895324e-01 6.7511036934307234e-01  5.3847791989063198e-01 2.1815239342246037e-01 6.4020126241562569e-01  5.6859815419060478e-01 3.2585929498134536e-01 6.7377446552382803e-01  5.4934488978966778e-01 4.6179248321428606e-01 5.2673418807142158e-01  5.6871820502474402e-01 3.2659878897720546e-01 6.7363852942025060e-01  5.6882536914909487e-01 3.2726397834740290e-01 6.7351318297293539e-01  5.6893090375401767e-01 3.2792476909964835e-01 6.7338537412690824e-01  5.6902595421500013e-01 3.2852415376217681e-01 6.7326711419330998e-01  5.6911462447772054e-01 3.2908783836507105e-01 6.7315342788446575e-01  5.6919631458446895e-01 3.2961096968253095e-01 6.7304581484430548e-01  5.6927132810495129e-01 3.3009505220613139e-01 6.7294436062637986e-01  5.6934069509838825e-01 3.3054644485592627e-01 6.7284789248758858e-01  5.6940355848492119e-01 3.3095906406752945e-01 6.7275800199707747e-01  5.6945939759906206e-01 3.3132904923897633e-01 6.7267588486533958e-01  5.6950164736179298e-01 3.3161249860668762e-01 6.7261164121217942e-01  5.6955150675155697e-01 3.3194887189137390e-01 6.7253425997527627e-01  5.6957652962589056e-01 3.3212362918258304e-01 6.7249216123799493e-01  5.6960656632213991e-01 3.3233400752342668e-01 6.7244096902172301e-01  5.6962744091164563e-01 3.3248594401442011e-01 6.7240209719765576e-01  5.6964287541408398e-01 3.3260372911441644e-01 6.7237020560342553e-01  5.6965403542249915e-01 3.3269507072861926e-01 6.7234343507786520e-01  5.6965236476084502e-01 3.3270344734548640e-01 6.7233487908715861e-01  5.6964316759287359e-01 3.3266386368506029e-01 6.7233654527541009e-01  5.6963490470742251e-01 3.3263248623480896e-01 6.7233539389963393e-01  5.6961891823823074e-01 3.3255179313778721e-01 6.7234478241640883e-01  5.6959203717243145e-01 3.3240149550151571e-01 6.7236897270203499e-01  5.6955264057969757e-01 3.3217073583145074e-01 6.7241040107591987e-01  5.6951484093269678e-01 3.3195335459725156e-01 6.7244754184697186e-01  5.6947071849646280e-01 3.3169730670638248e-01 6.7249202544607767e-01  5.6941077167078535e-01 3.3134029173619695e-01 6.7255764187510048e-01  5.6934977388209140e-01 3.3098028615849323e-01 6.7262210771398989e-01  5.6927913722670576e-01 3.3056158831118032e-01 6.7269736798267266e-01  5.6919982303864003e-01 3.3009071866632589e-01 6.7278187636320297e-01  5.6911669623438488e-01 3.2960014696786377e-01 6.7286807804798021e-01  5.6901715277855813e-01 3.2900948936997526e-01 6.7297245735583044e-01  5.6891099413882440e-01 3.2838267047331188e-01 6.7308114255900808e-01  5.6880317219557064e-01 3.2775196760180186e-01 6.7318694526317169e-01  5.6867924044986728e-01 3.2702692331448052e-01 6.7330750916831350e-01  5.6853807104958654e-01 3.2620249545280355e-01 6.7344266614707748e-01  5.6839258876151022e-01 3.2536075663249153e-01 6.7357565144006815e-01  5.6824415056977462e-01 3.2451091237190099e-01 6.7370428586466558e-01  5.6807816738626382e-01 3.2356455880106871e-01 6.7384386652802664e-01  5.6789378144435532e-01 3.2251815258686917e-01 6.7399376336232641e-01  5.6770204542687863e-01 3.2144203249985925e-01 6.7413988437883843e-01  5.6749414988197899e-01 3.2028511616454225e-01 6.7428958235795788e-01  5.6727199476924228e-01 3.1906030536759822e-01 6.7443935653602771e-01  5.6703668558305664e-01 3.1777694051342614e-01 6.7458605840744812e-01  5.6678909334034633e-01 3.1644220244345650e-01 6.7472742716052403e-01  5.6651344691478911e-01 3.1496983709339865e-01 6.7487157513765428e-01  5.6622414883295547e-01 3.1344372547877636e-01 6.7500659172360855e-01  5.6591803888524783e-01 3.1185218103260248e-01 6.7512959098835323e-01  5.6559023566490030e-01 3.1016803064694048e-01 6.7524334064094982e-01  5.6524511220318252e-01 3.0842254250274542e-01 6.7533934864663026e-01  5.6486869327149425e-01 3.0654292950080514e-01 6.7542199386730373e-01  5.6447070037331271e-01 3.0458724208400573e-01 6.7548161022048281e-01  5.6405233948009692e-01 3.0256630787002448e-01 6.7551407346149628e-01  5.6360115408544220e-01 3.0042150952286811e-01 6.7551759344450113e-01  5.6312264509775734e-01 2.9818695215467306e-01 6.7548599986757840e-01  5.6261771891181334e-01 2.9587144282019900e-01 6.7541335660288704e-01  5.6209967416406970e-01 2.9354084765126565e-01 6.7530308720087628e-01  5.6087262978188845e-01 2.8818551627780414e-01 6.7487928207937264e-01  5.6022511096728078e-01 2.8545304820994610e-01 6.7457325310816363e-01  5.5954709983725848e-01 2.8266115279033854e-01 6.7419228577400669e-01  5.5880597974845925e-01 2.7967160288552179e-01 6.7371303883450218e-01  5.5802475249630790e-01 2.7660055675093176e-01 6.7313603341991912e-01  5.5719586012661892e-01 2.7342275710684533e-01 6.7244650034824938e-01  5.5631914445187158e-01 2.7015652671228646e-01 6.7163101543550807e-01  5.5538731713209821e-01 2.6678011729620277e-01 6.7067353107574701e-01  5.5440554850839396e-01 2.6332835406578403e-01 6.6956569573586089e-01  5.5337570892607890e-01 2.5982191268833732e-01 6.6829723385493356e-01  5.5227255912376472e-01 2.5618375237163238e-01 6.6682330470514783e-01  5.5112570629754165e-01 2.5253405925325084e-01 6.6516896316203489e-01  5.4992097609490331e-01 2.4884050151590018e-01 6.6329738958729656e-01  5.4864398354160659e-01 2.4506969123003375e-01 6.6117545021744240e-01  5.4730490194899162e-01 2.4127632863256090e-01 6.5879648658405154e-01  5.4591119491072471e-01 2.3750396296932511e-01 6.5615743280335925e-01  5.4446218047503958e-01 2.3376659963553512e-01 6.5324049593961320e-01  5.4296241616638408e-01 2.3010008608931098e-01 6.5003796259332192e-01  5.4140753773907591e-01 2.2651102840883652e-01 6.4652488541612330e-01  5.3980531353345340e-01 2.2303934172116333e-01 6.4270080466913937e-01  5.3819792663575083e-01 2.1981585619799140e-01 6.3864924935636547e-01  5.3653520020525025e-01 2.1673928819484484e-01 6.3423632832175592e-01  5.3487810962197258e-01 2.1398415684725589e-01 6.2959633606867071e-01  5.3321961841606380e-01 2.1154192067314193e-01 6.2471177165413883e-01  5.3159079854360336e-01 2.0951631767179324e-01 6.1965031550081473e-01  5.3002048613782071e-01 2.0798988129593099e-01 6.1449068591586509e-01  5.2853978348074826e-01 2.0704861981959224e-01 6.0932277556580638e-01  5.2718573765617749e-01 2.0678882005880422e-01 6.0426060979962537e-01  5.2598545121950768e-01 2.0727704283476089e-01 5.9939288864797624e-01  5.2499749629798398e-01 2.0866056217179760e-01 5.9490043623894695e-01  5.2426403793477239e-01 2.1103102601094409e-01 5.9092195466433328e-01  5.2383415409488121e-01 2.1450224966192108e-01 5.8760993005831663e-01  5.2377611833928395e-01 2.1923317688420424e-01 5.8516270587420460e-01  5.2408420917942911e-01 2.2522797347306850e-01 5.8353568502477493e-01  5.2477965800011006e-01 2.3253108628588365e-01 5.8275306070179222e-01  5.2594075905064186e-01 2.4135312273688658e-01 5.8296385660515226e-01  5.2750514900587653e-01 2.5159401733379683e-01 5.8388974630559076e-01  5.2937918269836737e-01 2.6304786694397214e-01 5.8515389437760168e-01  5.3158576980533934e-01 2.7583003521558846e-01 5.8667595786565152e-01  5.3401182229638566e-01 2.8970770764521031e-01 5.8807093055304749e-01  5.3644203485444220e-01 3.0410052956879213e-01 5.8873412199889608e-01  5.3887559361344695e-01 3.1900575209722504e-01 5.8868629424062946e-01  5.4117174961206271e-01 3.3397726577698711e-01 5.8764411230443325e-01  5.4327686644231832e-01 3.4879753757094523e-01 5.8562588563969697e-01  5.4511170428126421e-01 3.6309922975984177e-01 5.8262837089161246e-01  5.4665521803240169e-01 3.7669215587713534e-01 5.7879689450679128e-01  5.4789087458436081e-01 3.8936796493170034e-01 5.7429514271243287e-01  5.4882768391258518e-01 4.0099931830286428e-01 5.6932260825079195e-01  5.4950563227000626e-01 4.1161596029411979e-01 5.6405952755189681e-01  5.4995538569167901e-01 4.2120662431836636e-01 5.5866412294088885e-01  5.5020075535713087e-01 4.2972392024816775e-01 5.5329654694763430e-01  5.5027138542227205e-01 4.3716509896665096e-01 5.4808420017279391e-01  5.5021085570165440e-01 4.4362608741149945e-01 5.4312548934861882e-01  5.5006454135433924e-01 4.4929631299408018e-01 5.3844223381104184e-01  5.4985256063798549e-01 4.5413867270953723e-01 5.3413834833522689e-01  5.4960670865751915e-01 4.5830256465496105e-01 5.3021599162070032e-01  5.4908611299597687e-01 4.6454722769068252e-01 5.2380848708175298e-01  5.4885649736664710e-01 4.6750401670386588e-01 5.2081803803360793e-01  5.4864757455672108e-01 4.6921053394545253e-01 5.1883721952620132e-01  5.4848756485358074e-01 4.7079889637928779e-01 5.1710403814622663e-01  5.4837927412117415e-01 4.7206473671266413e-01 5.1578427007339156e-01  5.4832712390630356e-01 4.7293565621850597e-01 5.1494892432108819e-01  5.4833652743191330e-01 4.7346498717548180e-01 5.1457591935338731e-01  5.4840916261571060e-01 4.7373114734450078e-01 5.1461126503118582e-01  5.4854525780581798e-01 4.7367450822676105e-01 5.1510083607443091e-01  5.4873944031792388e-01 4.7355866803735708e-01 5.1582460233432625e-01  5.4900078907534411e-01 4.7275033800115318e-01 5.1729502735810517e-01  5.4931561606597468e-01 4.7171377058829883e-01 5.1911041208137920e-01  5.4967856858720665e-01 4.7031721521990077e-01 5.2135213805162672e-01  5.5008674558723181e-01 4.6864376178033740e-01 5.2394405166882962e-01  5.5052879443799518e-01 4.6647816019420457e-01 5.2701126545545429e-01  5.5098649266247490e-01 4.6370373077959925e-01 5.3058054018230583e-01  5.5145306102044955e-01 4.6046555610695655e-01 5.3451567045794490e-01  5.5191172923053167e-01 4.5665481036599220e-01 5.3884203869918035e-01  5.5234330742841453e-01 4.5221290027619010e-01 5.4353764829089646e-01  5.5272370398234660e-01 4.4705707236023268e-01 5.4858338599024892e-01  5.5301935297186056e-01 4.4105341210669474e-01 5.5396444658181210e-01  5.5320553615892143e-01 4.3418739921369243e-01 5.5960293967410724e-01  5.5326537004395115e-01 4.2650902182731787e-01 5.6539295041050830e-01  5.5316531879514896e-01 4.1794989797130822e-01 5.7126024396332487e-01  5.5286878012869456e-01 4.0844838986946985e-01 5.7710709575408192e-01  5.5234790240228482e-01 3.9802121414581826e-01 5.8279801889624883e-01  5.5157546880570940e-01 3.8669576171817510e-01 5.8818160038753375e-01  5.5053724717727470e-01 3.7456559815660079e-01 5.9309458763478040e-01  5.4922207232486131e-01 3.6172708059651787e-01 5.9737268983581771e-01  5.4763939256996641e-01 3.4835325110545456e-01 6.0086698316512599e-01  5.4581155746533627e-01 3.3463928234423512e-01 6.0346022668327215e-01  5.4379620126106731e-01 3.2086986595188560e-01 6.0511271719199844e-01  5.4164291632417250e-01 3.0726756734307237e-01 6.0582365853974407e-01  5.3942044563637781e-01 2.9406133150029973e-01 6.0568117683812439e-01  5.3716868318068378e-01 2.8138608536880749e-01 6.0475827783118619e-01  5.3500403813744912e-01 2.6953943270070113e-01 6.0333743086596969e-01  5.3299933032878988e-01 2.5867153146720762e-01 6.0166856575905769e-01  5.3122258858040339e-01 2.4889323163768640e-01 6.0002070501898330e-01  5.2972318624612191e-01 2.4025844313663927e-01 5.9863485508394132e-01  5.2853912126064084e-01 2.3279795569087128e-01 5.9772452632285455e-01  5.2761798625236511e-01 2.2633470753952226e-01 5.9722873218967931e-01  5.2700670138567174e-01 2.2094351381765687e-01 5.9735646069345782e-01  5.2674131126158785e-01 2.1665971121403987e-01 5.9826924918223456e-01  5.2671032488743807e-01 2.1320676018894072e-01 5.9968227875944502e-01  5.2690670240846527e-01 2.1055764087725851e-01 6.0159590450642353e-01  5.2731474419325852e-01 2.0865543777183293e-01 6.0397970990273586e-01  5.2795083805689658e-01 2.0752685494434764e-01 6.0688543055820321e-01  5.2866758063217834e-01 2.0684520853457408e-01 6.0987842412970650e-01  5.2954700829284052e-01 2.0676883077591512e-01 6.1320438133662447e-01  5.3050121412526852e-01 2.0709759837420888e-01 6.1660298751854981e-01  5.3157463429075213e-01 2.0793019176185731e-01 6.2019386008408484e-01  5.3267072505319890e-01 2.0902372364782651e-01 6.2371295318402598e-01  5.3379379939215099e-01 2.1039003532758252e-01 6.2716853757364055e-01  5.3495192762942212e-01 2.1203426432224515e-01 6.3058416148996921e-01  5.3613118061902565e-01 2.1391410190520765e-01 6.3392467211789683e-01  5.3730760776408926e-01 2.1595993435248706e-01 6.3713082683993683e-01  5.3963303561615639e-01 2.2045832851766553e-01 6.4311893977902523e-01  5.4076971888630787e-01 2.2286274742457382e-01 6.4587974268284698e-01  5.4189706462568088e-01 2.2537964644753303e-01 6.4851086353470666e-01  5.4299316319734880e-01 2.2793863107493137e-01 6.5096970680952959e-01  5.4406147929465121e-01 2.3054075505115121e-01 6.5327163019075718e-01  5.4510089005421558e-01 2.3317353117530107e-01 6.5542117114719334e-01  5.4611129854689133e-01 2.3582933244541840e-01 6.5742397124455931e-01  5.4708932003601107e-01 2.3848873987841698e-01 6.5928090003890283e-01  5.4803662452548463e-01 2.4114959692076013e-01 6.6100154674389289e-01  5.4895286580824221e-01 2.4380356406304415e-01 6.6259131989663600e-01  5.4983825721003232e-01 2.4644501364258745e-01 6.6405680709497927e-01  5.5068585943960657e-01 2.4904085330910364e-01 6.6539499424022142e-01  5.5151298808764049e-01 2.5164642444546442e-01 6.6663501955817994e-01  5.5231028892713352e-01 2.5422162660388903e-01 6.6777093958793221e-01  5.5307127157425839e-01 2.5673925828195548e-01 6.6879820173541737e-01  5.5382046863383383e-01 2.5928246150139778e-01 6.6975181721605481e-01  5.5453936710585294e-01 2.6177801230236136e-01 6.7061493843918041e-01  5.5521715996480936e-01 2.6418013127774359e-01 6.7138021283132487e-01  5.5587716400151599e-01 2.6657239921222353e-01 6.7207855843628206e-01  5.5651214868091758e-01 2.6892063900830032e-01 6.7270571530906531e-01  5.5712455337418054e-01 2.7123216252524507e-01 6.7326816311635207e-01  5.5771386202231532e-01 2.7350116245833361e-01 6.7376847350918867e-01  5.5828293144011876e-01 2.7573446656445239e-01 6.7421276697862320e-01  5.5883325569707676e-01 2.7793591756345404e-01 6.7460466735798486e-01  5.5935610033465399e-01 2.8006370812243042e-01 6.7494352291996895e-01  5.5986242700406841e-01 2.8216274283921300e-01 6.7523699555885996e-01  5.6035312201326481e-01 2.8423192433567851e-01 6.7549023327925972e-01  5.6081715768867357e-01 2.8622133838998975e-01 6.7569979970218796e-01  5.6127002992656994e-01 2.8819648916481538e-01 6.7587499180915045e-01  5.6170533918903198e-01 2.9012545969606385e-01 6.7601576220289183e-01  5.6212202817707924e-01 2.9200082418377121e-01 6.7612500839085143e-01  5.6252313210451432e-01 2.9383441399655064e-01 6.7620506577605355e-01  5.6290854441332461e-01 2.9562297159253520e-01 6.7625848217450257e-01  5.6328086139057321e-01 2.9737697741669278e-01 6.7628729357232342e-01  5.6364267940347634e-01 2.9910710218288428e-01 6.7629300391789671e-01  5.6398272851983822e-01 3.0075462232571454e-01 6.7627933923966710e-01  5.6430817046337856e-01 3.0235360111168197e-01 6.7624708696896429e-01  5.6463081890638556e-01 3.0396206627169364e-01 6.7619541417140216e-01  5.6493513450615640e-01 3.0549853171961217e-01 6.7612986060325619e-01  5.6522356339355506e-01 3.0697358289444021e-01 6.7605165728779981e-01  5.6550346862195211e-01 3.0842356881965433e-01 6.7595999264638706e-01  5.6577074463658572e-01 3.0982498341844944e-01 6.7585803306190262e-01  5.6603006417062562e-01 3.1120218363593621e-01 6.7574458706847429e-01  5.6627250547742769e-01 3.1250354952664156e-01 6.7562641182111061e-01  5.6650875680860813e-01 3.1378759224481795e-01 6.7549834413506160e-01  5.6673264087691910e-01 3.1501770941267876e-01 6.7536575830514789e-01  5.6694823592230947e-01 3.1621550179513558e-01 6.7522686062398951e-01  5.6715676124959957e-01 3.1738660537685925e-01 6.7508214559804136e-01  5.6735052497069083e-01 3.1848585639128002e-01 6.7493880929573447e-01  5.6753409518482911e-01 3.1953791132206955e-01 6.7479403091843793e-01  5.6771413983096930e-01 3.2058053149308868e-01 6.7464334079270982e-01  5.6788213198107329e-01 3.2156258945825600e-01 6.7449518204952208e-01  5.6803959568886730e-01 3.2249158054503835e-01 6.7434956294366244e-01  5.6819047999810057e-01 3.2339006794135494e-01 6.7420313404756871e-01  5.6833417126809438e-01 3.2425303449010401e-01 6.7405794570355437e-01  5.6846727873063363e-01 3.2505929914895509e-01 6.7391784912753128e-01  5.6583502148775044e-01 3.1015115098277757e-01 6.7583985692496817e-01  5.2655162697791169e-01 2.1868287708385586e-01 5.9660305585401552e-01  5.6899822652556897e-01 3.2886342806823954e-01 6.7301281229428067e-01  5.3771356384678570e-01 2.1657235145934564e-01 6.3825932530428187e-01  5.6846749017967957e-01 3.2505095497538972e-01 6.7392445850440175e-01  5.4172376953714174e-01 3.3947872412951247e-01 5.8612713395745675e-01  5.6681999546968442e-01 3.1656915050400863e-01 6.7473347434904873e-01  5.6106604868756937e-01 2.8897022648052739e-01 6.7498564822540852e-01  5.4916767811242817e-01 4.6191188030948943e-01 5.2607051372839841e-01  5.2519484505273117e-01 2.0732724954500900e-01 5.9625677017798440e-01  5.6301880525498504e-01 2.9612657300167089e-01 6.7627708223206562e-01  5.4427751802273650e-01 3.2583542275012389e-01 6.0371774702848546e-01  5.2412280319740634e-01 2.2876252098414160e-01 5.8194611056883794e-01  5.6051938248273758e-01 2.8492167335469282e-01 6.7557950093769714e-01  5.3547113184096440e-01 2.1475629782767353e-01 6.3135685797686047e-01  5.6943291713039224e-01 3.3142716637909841e-01 6.7256054755563877e-01  5.5278044600237930e-01 4.1196516411651218e-01 5.7433907263587558e-01  5.5161334557088237e-01 4.5724783821583792e-01 5.3745489060489948e-01  5.6958633320906049e-01 3.3225253594695625e-01 6.7244283953741868e-01  5.5676653482109895e-01 2.6985069856275012e-01 6.7295705653748783e-01  5.4500410630957297e-01 2.3507144686257139e-01 6.5438148644589222e-01  5.5179877359378593e-01 2.5252331072141559e-01 6.6706869794897916e-01  5.6953210693479706e-01 3.3183310626766510e-01 6.7255727438168955e-01  5.4920095597184848e-01 4.7088939493509246e-01 5.1936956606692364e-01  5.5255161811468312e-01 2.5703232622443151e-01 6.6723755308481136e-01  5.4738900620300746e-01 2.3925140490119648e-01 6.5986364871393743e-01  5.6929837010840856e-01 3.3026896431060937e-01 6.7290952658523573e-01  5.6718639431782480e-01 3.1754009238994768e-01 6.7507021298911229e-01  5.2886064067797589e-01 2.0623519092696657e-01 6.1085000182989657e-01  5.4945639314316985e-01 4.1460024982694199e-01 5.6177870229184668e-01  5.6495345857720436e-01 3.0692407612736899e-01 6.7542883388951991e-01  5.6827692032967636e-01 3.2466441862038986e-01 6.7369657113465464e-01  5.4834645741187904e-01 4.7228337809817023e-01 5.1551191112355665e-01  5.5655793180788116e-01 2.7098827194876252e-01 6.7188644064751102e-01  5.4337366610496052e-01 2.2877696293832545e-01 6.5183183229962260e-01  5.6900760772724901e-01 3.2840198660858760e-01 6.7329507971609537e-01  5.2996234046153123e-01 2.6779506280320964e-01 5.8482304348209002e-01  5.3161584481925572e-01 2.5249142326796287e-01 5.9965667261160682e-01  5.6789908189217331e-01 3.2165110801591962e-01 6.7448743899018326e-01  5.6470026795309081e-01 3.0429394657809827e-01 6.7619283131360419e-01  5.3310233014626873e-01 2.0924194936348064e-01 6.2516507654283460e-01  5.5000954844851002e-01 4.4445780071777113e-01 5.4186234247696852e-01  5.6330100395246541e-01 2.9897469771169294e-01 6.7552475794923184e-01  5.6951544325841774e-01 3.3187699986221508e-01 6.7249457073031416e-01  5.6595961680026141e-01 3.1202104525503582e-01 6.7514132430979246e-01  5.4854921708620330e-01 4.6914383273175086e-01 5.1856752784435822e-01  5.4688424803374192e-01 3.8103211496733208e-01 5.7663109787866218e-01  5.5900093585403610e-01 2.8039036745003759e-01 6.7387824320390266e-01  5.2896391279899857e-01 2.0687387382540207e-01 6.1099351211273190e-01  5.6655427930684055e-01 3.1402266770202786e-01 6.7548118819624181e-01  5.6865041756264434e-01 3.2681247971412059e-01 6.7336339940599577e-01  5.5901965768014061e-01 2.7866368764027810e-01 6.7474388153236831e-01  5.5293767167661678e-01 4.3596072112912732e-01 5.5746879862131060e-01  5.5482568111008235e-01 2.6275720456797624e-01 6.7095910718162410e-01  5.2680084170573016e-01 2.0891317888964678e-01 6.0188457376798721e-01  5.6771567291955571e-01 3.2148032981879604e-01 6.7415266910782734e-01  5.6183230758