<?xml version="1.0"?>
<VTKFile type="UnstructuredGrid"  version="0.1"  >
<UnstructuredGrid>
<Piece  NumberOfPoints="4940" NumberOfCells="9650">
<Points>
<DataArray  type="Float64"  NumberOfComponents="3"  format="ascii">500 250 0  0 250 0  250 500 0  250 0 0  256.8885856082646 499.9050767557906 0  263.7719401218049 499.6203791065173 0  270.6448364229772 499.1461232471188 0  277.5020553257866 498.4826693209355 0  284.3383895508592 497.6305211460281 0  291.1486476865662 496.5903258312597 0  297.9276581259182 495.3628732847843 0  304.6702729675493 493.9490956196674 0  311.3713719748657 492.3500664368026 0  318.0258664141369 490.5670000199653 0  324.6287029687753 488.6012504015818 0  331.1748675330201 486.4543103455647 0  337.6593890460416 484.1278102064655 0  344.0773432429536 481.6235166997244 0  350.4238564271474 478.9433315480048 0  356.694109139292 476.0892900492477 0  362.88333985546 473.0635595140469 0  368.9868485575419 469.8684376402048 0  375.0000003153078 466.5063507640667 0  380.9182288257928 462.9798520074548 0  386.7370398729688 459.2916193419558 0  392.4520147244077 455.444453565817 0  398.0588135356345 451.4412761437442 0  403.5531785622926 447.285127045646 0  408.9309374414144 442.9791624087773 0  414.1880064015299 438.5266521049243 0  419.3203932989752 433.9309773069245 0  424.324200661095 429.1956279150535 0  429.1956286596235 424.3241998957182 0  433.9309780058756 419.3203925397119 0  438.5266527445345 414.1880056671062 0  442.9791630130591 408.9309367076756 0  447.2851276060475 403.5531778422888 0  451.4412766621026 398.0588128303826 0  455.4444540361634 392.4520140460735 0  459.2916197786263 386.7370392045948 0  462.9798524073514 380.9182281752347 0  466.5063511234856 374.9999996927758 0  469.8684379657123 368.9868479560565 0  473.0635598144817 362.8833392617846 0  476.0892903190255 356.6941085676214 0  478.9433317963513 350.4238558609745 0  481.6235169154735 344.0773427117675 0  484.12781039012 337.6593885555221 0  486.4543105028062 331.1748670749914 0  488.601250531677 324.6287025528375 0  490.5670001317469 318.0258660188321 0  492.3500665291326 311.3713716102628 0  493.949095695951 304.6702726271575 0  495.3628733416623 297.9276578347343 0  496.5903258712341 291.1486474470129 0  497.6305211749058 284.3383893426084 0  498.4826693388848 277.502055163614 0  499.1461232580606 270.6448362909296 0  499.6203791109319 263.7719400417897 0  499.9050767571306 256.8885855596534 0  499.9050767559877 243.1114143988867 0  499.6203791069493 236.2280598860241 0  499.1461232485393 229.3551635941651 0  498.4826693235677 222.4979446979962 0  497.6305211491849 215.6616104719064 0  496.5903258357701 208.8513523404629 0  495.3628732906988 202.0723419043604 0  493.9490956264813 195.3297270628552 0  492.3500664487791 188.6286280724281 0  490.5670000344809 181.9741336371959 0  488.6012504175981 175.3712970824318 0  486.4543103623226 168.8251325157939 0  484.1278102222298 162.3406109960628 0  481.6235167152198 155.9226567951971 0  478.9433315621651 149.5761436051346 0  476.0892900516498 143.3058908657982 0  473.063559513628 137.1166601437124 0  469.8684376406648 131.0131514433083 0  466.5063507675389 124.9999996907064 0  462.9798520124137 119.0817711822745 0  459.2916193464549 113.2629601339176 0  455.4444535642773 107.5479852733717 0  451.4412761528674 101.9411864767781 0  447.2851270583545 96.44682145403524 0  442.9791624165781 91.06906256805769 0  438.5266521117469 85.81199360630404 0  433.9309773156125 80.67960671046254 0  429.1956279150353 75.67579933888632 0  424.3241998888952 70.80437133373906 0  419.3203925223282 66.06902197812161 0  414.1880056411937 61.47334723289828 0  408.9309366751728 57.0208369601728 0  403.5531778009394 52.71487236176898 0  398.058812796452 48.55872331295853 0  392.4520140187753 44.55554594490843 0  386.7370391799677 40.70838020528396 0  380.9182281475119 37.02014757560744 0  374.9999996718656 33.49364886444181 0  368.9868479340393 30.13156202237255 0  362.8833392380029 26.93644017348339 0  356.6941085456942 23.91070967062674 0  350.4238558420009 21.0566681953261 0  344.0773426899492 18.37648307566465 0  337.6593885328982 15.87218960140942 0  331.1748670549786 13.54568949032341 0  324.6287025315056 11.39874946165088 0  318.0258660010876 9.432999863235466 0  311.3713716017894 7.649933468721599 0  304.6702726190621 6.050904302234756 0  297.9276578269805 4.637126656823085 0  291.148647441857 3.409674127905504 0  284.3383893425031 2.369478825079682 0  277.502055159398 1.517330660648639 0  270.6448362875833 0.853876741662134 0  263.7719400401456 0.3796208889774277 0  256.8885855592052 0.09492324285704967 0  243.1114143979462 0.09492324403817065 0  236.2280598850882 0.3796208931023841 0  229.3551635938215 0.8538767514891958 0  222.4979446968584 1.517330676558146 0  215.6616104703111 2.369478851036291 0  208.8513523382973 3.409674164591252 0  202.0723419066374 4.637126708856528 0  195.3297270659513 6.050904372824903 0  188.628628074828 7.649933550613184 0  181.9741336377093 9.432999965373938 0  175.3712970793675 11.39874958336037 0  168.8251325057572 13.54568964112298 0  162.340610986655 15.87218978129263 0  155.9226567874317 18.37648328793418 0  149.576143602509 21.05666843898663 0  143.3058908718157 23.91070994551046 0  137.1166601505524 26.93644048291054 0  131.0131514451933 30.13156235831508 0  124.9999996848412 33.49364923584736 0  119.0817711715717 37.0201479941652 0  113.2629601211624 40.70838066187849 0  107.5479852622251 44.55554644345162 0  101.9411864693332 48.55872385260452 0  96.44682143286516 52.71487295812284 0  91.06906254351222 57.02083760363669 0  85.81199358272519 61.4733479087879 0  80.67960667988106 66.06902271253972 0  75.67579930062769 70.80437212218331 0  70.80437129287643 75.67580015310926 0  66.06902193673014 80.67960752263491 0  61.47334718684866 85.81199441168215 0  57.02083692524275 91.0690633672404 0  52.71487232786438 96.44682224262129 0  48.55872328070024 101.941187247437 0  44.55554591578033 107.5479860232332 0  40.7083801742321 113.2629608675606 0  37.02014754791168 119.0817718975441 0  33.49364883372994 125.000000381329 0  30.13156199866361 131.0131521097709 0  26.9364401549829 137.1166607985551 0  23.91070965524918 143.3058914868915 0  21.05666818346614 149.576144185037 0  18.37648306853811 155.9226573275967 0  15.8721895918909 162.3406114925245 0  13.54568948170046 168.8251329701392 0  11.39874945301878 175.3712974960928 0  9.432999857087736 181.9741340206533 0  7.649933466342702 188.6286284076045 0  6.050904301250966 195.3297273853278 0  4.637126656808988 202.0723421730917 0  3.409674127767772 208.8513525589684 0  2.369478824521138 215.6616106615248 0  1.517330660909465 222.4979448382452 0  0.8538767414496533 229.355163714981 0  0.3796208887135322 236.2280599646376 0  0.09492324266324204 243.1114144478261 0  0.0949232442452228 256.8885856095658 0  0.3796208935834784 263.7719401236316 0  0.8538767530323526 270.6448364248016 0  1.517330679476544 277.5020553295092 0  2.369478854618649 284.3383895555228 0  3.409674170191892 291.1486476952655 0  4.6371267162381 297.9276581311522 0  6.050904381420935 304.6702729724059 0  7.649933562385399 311.3713719716595 0  9.43299997979841 318.0258664133013 0  11.3987495994252 324.6287029719946 0  13.54568965885832 331.174867545904 0  15.87218979367188 337.6593890464085 0  18.37648329843151 344.0773432384132 0  21.05666844777872 350.423856417535 0  23.91070995156048 356.6941091410045 0  26.93644048988043 362.8833398632205 0  30.13156235982007 368.9868485575877 0  33.49364924138357 375.0000003247478 0  37.0201480006036 380.9182288389023 0  40.70838066758398 386.7370398875706 0  44.55554644477201 392.4520147396792 0  48.55872386086904 398.0588135419111 0  52.71487295981296 403.5531785693063 0  57.02083760525949 408.9309374584583 0  61.47334790862246 414.1880064170849 0  66.06902271205095 419.320393319588 0  70.80437211216579 424.3242006890749 0  75.67580013809859 429.195628692521 0  80.6796075127923 433.930978054209 0  85.81199439754931 438.5266528008431 0  91.06906334717917 442.9791630582355 0  96.44682221438322 447.2851276501571 0  101.9411872243843 451.441276702356 0  107.5479859945825 455.4444540643537 0  113.2629608446994 459.2916198108319 0  119.0817718768376 462.9798524393601 0  125.0000003647644 466.5063511567065 0  131.0131521012763 469.8684379967393 0  137.1166607840049 473.0635598376539 0  143.3058914748804 476.0892903390826 0  149.5761441732679 478.9433318113714 0  155.9226573130112 481.6235169255377 0  162.3406114779862 484.1278104026658 0  168.8251329570439 486.4543105138039 0  175.3712974805475 488.601250542119 0  181.9741340135204 490.5670001408953 0  188.6286284005059 492.3500665318597 0  195.3297273788229 493.9490956972913 0  202.0723421640089 495.3628733414168 0  208.8513525529672 496.5903258712308 0  215.6616106544547 497.6305211744985 0  222.4979448327038 498.4826693384772 0  229.3551637102845 499.1461232581612 0  236.2280599621369 499.6203791111485 0  243.1114144470173 499.9050767573145 0  155.2373389820306 474.8197567317462 0  25.36256300907667 153.9152755065208 0  432.3709625126712 412.6214396304305 0  6.013151705810699 246.637913163471 0  246.6379131630491 493.986848294322 0  338.6995838441862 22.68244767887072 0  477.3175523131281 338.6995838660569 0  493.9868482700757 246.6379131399102 0  246.6201155078769 6.218451882810491 0  417.6179310263282 72.7156044707053 0  102.2232990934413 445.0100869616822 0  63.66330858966404 92.20354579482142 0  391.3105220491464 50.73522820883105 0  72.79295043967942 418.0702734974704 0  448.290574428537 108.25674339002 0  402.4604651193511 440.7462829841712 0  97.55317348421397 59.11376320116034 0  136.7376477664901 33.58246472647134 0  363.3288394375288 465.6947312928271 0  44.0678766556007 381.0860953771871 0  469.6905266180034 142.3890690100806 0  22.68244791668644 338.6995843487432 0  338.699584349159 477.317552078365 0  173.389488083762 18.6681884918202 0  483.4809734778481 179.7121987795732 0  13.50237455842738 306.4709525540879 0  305.9825168523021 487.24416992
[...]
<PointData  Vectors="f_12"> 
<DataArray  type="Float64"  Name="f_12"  NumberOfComponents="3" format="ascii">5.6328349015722179e-01 4.5916218880950954e-01 5.7030191186670143e-01  5.5199688272461833e-01 3.9945618907641572e-01 5.8078949661186674e-01  5.6960782018069844e-01 4.8835424257974358e-01 5.6365011668476461e-01  5.1010796475282427e-01 2.8923668625453752e-01 4.8445369146372608e-01  5.6956610827207577e-01 4.8884939044673048e-01 5.6315293396626154e-01  5.6952523306466329e-01 4.8928287380621749e-01 5.6270697766826716e-01  5.6947887664350716e-01 4.8971850487214980e-01 5.6224558083215137e-01  5.6943269261674223e-01 4.9010468947787861e-01 5.6182412341914778e-01  5.6938435888316130e-01 4.9046451626877152e-01 5.6141833355092119e-01  5.6933476089288815e-01 4.9079306771077164e-01 5.6103437563426084e-01  5.6928368832228826e-01 4.9109239032696828e-01 5.6067012321132792e-01  5.6923049466829412e-01 4.9136881071217225e-01 5.6031887853253759e-01  5.6917597473600134e-01 4.9161680249674833e-01 5.5998705514461644e-01  5.6912039823231531e-01 4.9183329094955203e-01 5.5967781747766832e-01  5.6906880133042215e-01 4.9197900523145721e-01 5.5943522375365684e-01  5.6900633126415878e-01 4.9217792358675022e-01 5.5912277214988337e-01  5.6895582944002598e-01 4.9224016730704168e-01 5.5894982135669957e-01  5.6889597143335791e-01 4.9234105242206433e-01 5.5872245279313237e-01  5.6883715358854914e-01 4.9239674574415376e-01 5.5853390241595513e-01  5.6877700307792578e-01 4.9242752413689017e-01 5.5836199776812279e-01  5.6871445571081092e-01 4.9244075192399617e-01 5.5819809041877000e-01  5.6865478850541440e-01 4.9238969142014294e-01 5.5809293093925072e-01  5.6859472632915053e-01 4.9230401833237158e-01 5.5801447546608807e-01  5.6852830012767330e-01 4.9223036974287815e-01 5.5791032226140225e-01  5.6846174874069744e-01 4.9211913923711265e-01 5.5783593943541865e-01  5.6839634754119039e-01 4.9195480097035887e-01 5.5780693094165223e-01  5.6833382118842557e-01 4.9172748045109499e-01 5.5783550342938171e-01  5.6826355263788197e-01 4.9151818486559473e-01 5.5782997243163701e-01  5.6819077605881330e-01 4.9128191578725949e-01 5.5783957347039648e-01  5.6812244656076871e-01 4.9096492845123618e-01 5.5792485622526822e-01  5.6804737887290413e-01 4.9065226663549238e-01 5.5798940188082158e-01  5.6797132502391157e-01 4.9029498963127738e-01 5.5808691856815817e-01  5.6789393667080901e-01 4.8989844138400962e-01 5.5821217965802128e-01  5.6781101173835491e-01 4.8949117820675608e-01 5.5833162340395071e-01  5.6773044119381588e-01 4.8900484476600981e-01 5.5851983344458500e-01  5.6764552370678434e-01 4.8849423128927089e-01 5.5871593152401156e-01  5.6755226109604651e-01 4.8798683272420079e-01 5.5888769856935916e-01  5.6745954090600448e-01 4.8740574909422130e-01 5.5911901392694152e-01  5.6736743996559724e-01 4.8674709736776001e-01 5.5941303734041892e-01  5.6726763795151658e-01 4.8607967890700210e-01 5.5969360266768642e-01  5.6715829554022712e-01 4.8541100461316339e-01 5.5994993286753003e-01  5.6704764591545265e-01 4.8466652740328336e-01 5.6026222192185127e-01  5.6693621640823177e-01 4.8384310950888409e-01 5.6063407643348062e-01  5.6681542375527627e-01 4.8300162582078016e-01 5.6099494371645264e-01  5.6668961775105398e-01 4.8209900670554617e-01 5.6138994020945354e-01  5.6655753117422369e-01 4.8114508636644676e-01 5.6180776646973962e-01  5.6641733386883897e-01 4.8014736892112575e-01 5.6223748599966217e-01  5.6626746092178715e-01 4.7911278061833174e-01 5.6266933974702371e-01  5.6611444327722515e-01 4.7796706348908063e-01 5.6317837993324271e-01  5.6595133568187506e-01 4.7678212238613216e-01 5.6368954646213598e-01  5.6577556368863047e-01 4.7554939339017516e-01 5.6420241171711383e-01  5.6559164704483822e-01 4.7424395773652234e-01 5.6474791259421508e-01  5.6539267249155434e-01 4.7289400136567045e-01 5.6528529265082172e-01  5.6518592297932713e-01 4.7143543824346734e-01 5.6588320696424599e-01  5.6496458106017799e-01 4.6991827627521471e-01 5.6648392017760907e-01  5.6472626456653030e-01 4.6835176150193464e-01 5.6707322956713924e-01  5.6447458325967659e-01 4.6668440870654188e-01 5.6769980947271026e-01  5.6420530833033611e-01 4.6494627026832586e-01 5.6832830462448591e-01  5.6391787794531711e-01 4.6314269448006623e-01 5.6895165078552334e-01  5.6360566567802750e-01 4.6133659467642774e-01 5.6950392367354330e-01  5.6293554077275798e-01 4.5712408362002788e-01 5.7091630883142352e-01  5.6255972718478986e-01 4.5497486499204731e-01 5.7152926666282977e-01  5.6215305349156430e-01 4.5277864923248606e-01 5.7208144579523734e-01  5.6172686669179084e-01 4.5040613348579028e-01 5.7269992757931820e-01  5.6126909637009093e-01 4.4796247001969425e-01 5.7327020104570936e-01  5.6078205447536411e-01 4.4542031444751112e-01 5.7381587300938586e-01  5.6025835240363608e-01 4.4279645342714458e-01 5.7430149125531560e-01  5.5970161174445676e-01 4.4006492345308812e-01 5.7475323575907067e-01  5.5910761110493534e-01 4.3725214001579910e-01 5.7513635373570926e-01  5.5847338216719755e-01 4.3437112762333646e-01 5.7542909549291543e-01  5.5780189131638158e-01 4.3134825616145966e-01 5.7569004174865901e-01  5.5708772555858632e-01 4.2828384511324197e-01 5.7582597329944996e-01  5.5632701727774270e-01 4.2514078020221946e-01 5.7584777733913350e-01  5.5552609941542419e-01 4.2187882433664353e-01 5.7579870054519244e-01  5.5468065403193878e-01 4.1853328607080598e-01 5.7563477813038799e-01  5.5378822679436701e-01 4.1512900425059773e-01 5.7532545333730289e-01  5.5284976168286426e-01 4.1166026810256173e-01 5.7487168060742033e-01  5.5186336977428829e-01 4.0814038539415842e-01 5.7425225187344431e-01  5.5083133734325163e-01 4.0455224720995031e-01 5.7348047170358907e-01  5.4975652596762070e-01 4.0090229202535033e-01 5.7255492818478060e-01  5.4863108967210494e-01 3.9727775349498273e-01 5.7138212858102133e-01  5.4747160016316776e-01 3.9354349748359085e-01 5.7010505721563043e-01  5.4626420792582508e-01 3.8981824939995591e-01 5.6858964972355075e-01  5.4502544204395165e-01 3.8605128593029520e-01 5.6692091261740918e-01  5.4375051232969895e-01 3.8227106509214109e-01 5.6505752353767824e-01  5.4244408717752401e-01 3.7848950021967609e-01 5.6300289517469215e-01  5.4110982516827244e-01 3.7471270154327818e-01 5.6076135193238996e-01  5.3975225796873105e-01 3.7094782096913337e-01 5.5834136891072328e-01  5.3838044308532518e-01 3.6718531426389339e-01 5.5577886876632931e-01  5.3699317200628272e-01 3.6344505005489025e-01 5.5305580543415478e-01  5.3559924397642011e-01 3.5972899768009509e-01 5.5020157257154956e-01  5.3420309811232558e-01 3.5604273013922538e-01 5.4723001280553796e-01  5.3280352809257436e-01 3.5240430503563586e-01 5.4412480516110706e-01  5.3141830259667322e-01 3.4878492306299486e-01 5.4097732724956304e-01  5.3005869985404752e-01 3.4520225564923807e-01 5.3782416659532084e-01  5.2870315837779158e-01 3.4169339995121822e-01 5.3455669640026404e-01  5.2736857385985469e-01 3.3822978261977182e-01 5.3126826675489025e-01  5.2608055126858821e-01 3.3481646413458999e-01 5.2806553251839417e-01  5.2481059375173811e-01 3.3148107624646117e-01 5.2481599610957541e-01  5.2356608593986964e-01 3.2820857123152458e-01 5.2156931124620798e-01  5.2238930859826238e-01 3.2501106447434636e-01 5.1850102986120306e-01  5.2124485242498131e-01 3.2190265018912145e-01 5.1546067421904673e-01  5.2014952782953527e-01 3.1888300112892271e-01 5.1252469809908541e-01  5.1909712317279100e-01 3.1595541304279018e-01 5.0967341699329560e-01  5.1809640759430675e-01 3.1313186522999709e-01 5.0694247712873308e-01  5.1714408613388985e-01 3.1041555392163006e-01 5.0432247176807665e-01  5.1624544179178522e-01 3.0781407364186059e-01 5.0183846099749041e-01  5.1540283034534207e-01 3.0533554176569799e-01 4.9950248563945998e-01  5.1460663520681804e-01 3.0297890658770188e-01 4.9727659989325745e-01  5.1385815707503735e-01 3.0074959514830507e-01 4.9516754490974441e-01  5.1316594304859242e-01 2.9865839218034257e-01 4.9321465902577355e-01  5.1253205738351482e-01 2.9671674652988539e-01 4.9142430031142237e-01  5.1195379134925212e-01 2.9492530589071236e-01 4.8978877339339805e-01  5.1141531633277260e-01 2.9326859098860675e-01 4.8824609655328743e-01  5.1093240394177220e-01 2.9177208937282795e-01 4.8685803276104522e-01  5.1049395991411528e-01 2.9042291539330667e-01 4.8558379499511678e-01  5.0978971567154807e-01 2.8825217777835432e-01 4.8352129628945811e-01  5.0942122004553769e-01 2.8724602913731612e-01 4.8235604897872925e-01  5.0921313623469533e-01 2.8660687624468389e-01 4.8173641613170942e-01  5.0900587785592577e-01 2.8605680576252157e-01 4.8106601503226543e-01  5.0883597565695504e-01 2.8565637341334099e-01 4.8048433844344418e-01  5.0871682231558912e-01 2.8542932163859613e-01 4.8004279204248707e-01  5.0864657161054483e-01 2.8537303173842710e-01 4.7973455315851721e-01  5.0861091793466640e-01 2.8546605856597623e-01 4.7950365940057216e-01  5.0862191553205272e-01 2.8572650629158547e-01 4.7939761187380647e-01  5.0863046585407157e-01 2.8607259147267888e-01 4.7922789988046738e-01  5.0874923027645091e-01 2.8669048267167463e-01 4.7942762713482612e-01  5.0889001653930210e-01 2.8743104368432965e-01 4.7965888310418181e-01  5.0907222951581643e-01 2.8832164106579089e-01 4.7999870295120406e-01  5.0928071618658566e-01 2.8934106070844456e-01 4.8038492136365063e-01  5.0954121104013106e-01 2.9052539444500253e-01 4.8091930064067900e-01  5.0986371725250990e-01 2.9187882910225399e-01 4.8164599414098880e-01  5.1021920081188876e-01 2.9336083759991660e-01 4.8244722840804793e-01  5.1061915016908721e-01 2.9498344160473183e-01 4.8336898240768178e-01  5.1106314190322066e-01 2.9674077843251617e-01 4.8441052318821709e-01  5.1155391476266066e-01 2.9862938339899142e-01 4.8558486112714949e-01  5.1209935540499352e-01 3.0065257850836696e-01 4.8692369920652256e-01  5.1269744325056199e-01 3.0279799959600517e-01 4.8842195713712366e-01  5.1333663553321962e-01 3.0505172221248417e-01 4.9002964061542448e-01  5.1402095030997375e-01 3.0741054429582187e-01 4.9176437775078036e-01  5.1475546858279342e-01 3.0986990158117211e-01 4.9364865653503798e-01  5.1553863443902381e-01 3.1242123662021942e-01 4.9567604436516399e-01  5.1637159481150419e-01 3.1505587619086323e-01 4.9785243916791089e-01  5.1725148452122105e-01 3.1776410506435593e-01 5.0016591433022772e-01  5.1817953743124079e-01 3.2053729359064947e-01 5.0262222238133492e-01  5.1915322749046688e-01 3.2336488773066990e-01 5.0521139897066036e-01  5.2017144286756622e-01 3.2623809012531685e-01 5.0792848284115077e-01  5.2122782640864918e-01 3.2915095906766761e-01 5.1074379386428159e-01  5.2232200279865182e-01 3.3209190447477399e-01 5.1365779510422294e-01  5.2345148627586591e-01 3.3506152510878834e-01 5.1665444828023577e-01  5.2462497737569680e-01 3.3803037675132497e-01 5.1978513499765344e-01  5.2582973098706165e-01 3.4100580318899409e-01 5.2298457669549581e-01  5.2706222535651670e-01 3.4397731398756465e-01 5.2624043173074031e-01  5.2831754043735601e-01 3.4694391866454904e-01 5.2952855863290771e-01  5.2959165800386521e-01 3.4990469934811425e-01 5.3282893646046314e-01  5.3087766648560442e-01 3.5286122376116863e-01 5.3611065243938461e-01  5.3219483767701337e-01 3.5576984647215726e-01 5.3947491088150401e-01  5.3351625668225189e-01 3.5865255520283296e-01 5.4279935137518809e-01  5.3482790952138881e-01 3.6156076813112603e-01 5.4599250094109131e-01  5.3615298740492712e-01 3.6441997575793539e-01 5.4919339602584816e-01  5.3748003514841391e-01 3.6723289530323489e-01 5.5235668696267859e-01  5.3880170264969607e-01 3.7001988480591164e-01 5.5543921804810492e-01  5.4009480711116920e-01 3.7285878707509040e-01 5.5830496417807207e-01  5.4139994889444576e-01 3.7556180549100132e-01 5.6123103119684192e-01  5.4267645152090060e-01 3.7830925514756358e-01 5.6394913008434289e-01  5.4393707871216834e-01 3.8100016083122196e-01 5.6657576522612951e-01  5.4516368054207343e-01 3.8374957665971882e-01 5.6897401253319080e-01  5.4637816536382666e-01 3.8641888949655578e-01 5.7131593529657687e-01  5.4756683398304373e-01 3.8904117155389906e-01 5.7353721776654232e-01  5.4872298319214297e-01 3.9166668308609337e-01 5.7558276937205810e-01  5.4984633672981942e-01 3.9429450081465234e-01 5.7745742460947902e-01  5.5093750255277096e-01 3.9688758105839167e-01 5.7919332396173950e-01  5.5302383715053882e-01 4.0199436214248163e-01 5.8225184132226004e-01  5.5401368099021486e-01 4.0450911653214872e-01 5.8356499442390419e-01  5.5496572291455304e-01 4.0703467359445517e-01 5.8470804233755291e-01  5.5588317893097783e-01 4.0951554910626342e-01 5.8573355678109162e-01  5.5676420406029825e-01 4.1196844836067686e-01 5.8662903902704455e-01  5.5760936286002061e-01 4.1439331618987402e-01 5.8740002433055305e-01  5.5841770654851963e-01 4.1679358224963503e-01 5.8804538540342044e-01  5.5919093245714402e-01 4.1915734066123517e-01 5.8858230013906365e-01  5.5992875630537653e-01 4.2149063344610338e-01 5.8900937519949370e-01  5.6063159671568663e-01 4.2379129905771012e-01 5.8933262887917470e-01  5.6129929693448466e-01 4.2605936672687761e-01 5.8955524282671357e-01  5.6193554770496768e-01 4.2826258353484892e-01 5.8971381943044787e-01  5.6253657301083093e-01 4.3046643761848657e-01 5.8975291742038816e-01  5.6310716749173839e-01 4.3262920963916068e-01 5.8971916622469189e-01  5.6364601436016148e-01 4.3472768716179205e-01 5.8962849135851458e-01  5.6415321344179059e-01 4.3685097569179143e-01 5.8941740619139638e-01  5.6463238471957411e-01 4.3892235522154815e-01 5.8915482845125589e-01  5.6508403057899681e-01 4.4089572415391065e-01 5.8887816417989047e-01  5.6550662046157762e-01 4.4286130537960877e-01 5.8851857560829179e-01  5.6590402593290690e-01 4.4478045181799558e-01 5.8811615372930470e-01  5.6627554376344802e-01 4.4666552296552098e-01 5.8766169026464343e-01  5.6662205824543044e-01 4.4851066411208440e-01 5.8716313051658253e-01  5.6694539303562252e-01 4.5032038481155934e-01 5.8662311285696667e-01  5.6724548266818442e-01 4.5210037803077269e-01 5.8603830039578608e-01  5.6752530637707177e-01 4.5380752125235235e-01 5.8545032598860669e-01  5.6778292803288011e-01 4.5549022557568747e-01 5.8481813860828302e-01  5.6802144490553341e-01 4.5714518527838210e-01 5.8415323200684133e-01  5.6824143361675805e-01 4.5872360737093570e-01 5.8349508587926113e-01  5.6844243198119182e-01 4.6029007612503214e-01 5.8279381345532133e-01  5.6862646882839851e-01 4.6181277180109209e-01 5.8207951746637998e-01  5.6879459102317853e-01 4.6328562597858125e-01 5.8136024907848594e-01  5.6894694186413131e-01 4.6472021922777706e-01 5.8062784184712746e-01  5.6908462991697184e-01 4.6611281000772975e-01 5.7988852652911571e-01  5.6920794577995304e-01 4.6747351197488951e-01 5.7913559940075210e-01  5.6931724539049633e-01 4.6881305132434697e-01 5.7836187783774484e-01  5.6941589612357724e-01 4.7007492751958774e-01 5.7762027379208758e-01  5.6950247111346086e-01 4.7129387752240726e-01 5.7688040860108991e-01  5.6957565798859211e-01 4.7252403487951994e-01 5.7609687057200443e-01  5.6963985508706005e-01 4.7368699625181027e-01 5.7534232635641047e-01  5.6969485407105802e-01 4.7479464761239504e-01 5.7460715847689814e-01  5.6973974254937765e-01 4.7588137737263903e-01 5.7386226256562733e-01  5.6977646102766388e-01 4.7692459828776984e-01 5.7313041811599774e-01  5.6980360250259254e-01 4.7794894807501803e-01 5.7238884596656847e-01  5.6982570735720584e-01 4.7890346527529992e-01 5.7168918082388054e-01  5.6983869941480625e-01 4.7984643415652284e-01 5.7097540605340491e-01  5.6984602757819480e-01 4.8074161598616733e-01 5.7028483205086844e-01  5.6984682324280789e-01 4.8160891913068438e-01 5.6959960945724419e-01  5.6984124132141267e-01 4.8245326282903944e-01 5.6891638379854892e-01  5.6983206742708570e-01 4.8323569070291589e-01 5.6827305440320364e-01  5.6981839279199298e-01 4.8397899107140246e-01 5.6764922295528930e-01  5.6979803365819770e-01 4.8471762541588220e-01 5.6701223827639335e-01  5.6977493444543625e-01 4.8540525746309332e-01 5.6640876274456542e-01  5.6974880537882178e-01 4.8604933279924101e-01 5.6583224755541461e-01  5.6971843295265612e-01 4.8666997098291653e-01 5.6526361712888773e-01  5.6968444437793075e-01 4.8726285959529353e-01 5.6470801200181664e-01  5.6964884498466284e-01 4.8780936342485298e-01 5.6418521019561285e-01  5.6981814802386865e-01 4.7707133346036368e-01 5.7311821817760178e-01  5.3406933753377417e-01 3.5930574853035557e-01 5.4453742450754139e-01  5.6781075559744854e-01 4.8886433002914365e-01 5.5883440446709465e-01  5.5151988205663882e-01 3.9767906457820107e-01 5.8051390647403989e-01  5.6966759898070152e-01 4.8770160122088063e-01 5.6431909488118115e-01  5.1981774573069095e-01 3.1748287835509970e-01 5.1193274758782648e-01  5.6639822233563630e-01 4.7915666836998810e-01 5.6297221965278266e-01  5.6315851292664088e-01 4.5768043177082335e-01 5.7109935031559977e-01  5.1015737442429865e-01 2.8904728290810638e-01 4.8480743189208209e-01  5.3777909444175331e-01 3.6494932575387007e-01 5.5502185023404105e-01  5.6915899904613376e-01 4.6642514450053296e-01 5.7983099266202254e-01  5.2088199382930156e-01 3.2763249380466891e-01 5.1018975569643443e-01  5.3071758131914659e-01 3.4641686808978822e-01 5.3970409633511873e-01  5.6815648254897289e-01 4.5759663819235352e-01 5.8414819986142263e-01  5.4692042259650864e-01 3.9116850454466973e-01 5.6989233701674935e-01  5.6827683490101777e-01 4.9105094512606995e-01 5.5823978271407648e-01  5.1454319939384863e-01 3.0864245239745525e-01 4.9343091208513923e-01  5.1061733236499474e-01 2.9441699678407540e-01 4.8370956963712097e-01  5.6873317821235325e-01 4.9201516242819815e-01 5.5858868913279724e-01  5.6613064358895748e-01 4.4544062243656923e-01 5.8821015453402548e-01  5.5333824565332113e-01 4.1289061860222553e-01 5.7552678351877251e-01  5.6284161554678358e-01 4.3110168404790089e-01 5.9012298991032919e-01  5.6897046683306185e-01 4.9193690499219855e-01 5.5923150261517030e-01  5.0905886724657656e-01 2.8749260639053026e-01 4.8044184982486959e-01  5.5811022514852027e-01 4.3200793674067783e-01 5.7611210095751653e-01  5.5959639811149464e-01 4.1970339555131703e-01 5.8935532968850823e-01  5.6925620815393263e-01 4.9106683988184507e-01 5.6062640058866120e-01  5.6987181294473011e-01 4.8245398572956366e-01 5.6899243289431645e-01  5.4212403145352506e-01 3.7651601659804296e-01 5.6319346551804472e-01  5.1444500212297040e-01 3.0207513561568800e-01 4.9708540135746981e-01  5.6534318333398370e-01 4.7167162748628438e-01 5.6611228509783962e-01  5.6727844519002368e-01 4.8549600842101154e-01 5.6018715647223760e-01  5.0885605017902247e-01 2.8569582549570610e-01 4.8055635198146346e-01  5.6052905687045795e-01 4.4340661352993949e-01 5.7461316756701075e-01  5.5635939599051254e-01 4.1024447291959809e-01 5.8664993439234847e-01  5.6945018465785713e-01 4.8991495918413458e-01 5.6202100157451085e-01  5.2562829261797461e-01 3.3318029960396511e-01 5.2720440396895529e-01  5.2783221598615504e-01 3.4525413486536433e-01 5.2862132640064641e-01  5.6979680040697511e-01 4.8536600946795672e-01 5.6649529927683584e-01  5.6963280846787823e-01 4.7267245188408197e-01 5.7612251693788674e-01  5.4717509241761997e-01 3.8744439013788123e-01 5.7332056056099434e-01  5.1194098835506119e-01 2.9450287107987383e-01 4.8998788572340729e-01  5.6442173368743043e-01 4.6549458198623234e-01 5.6848198926067151e-01  5.6849694374353377e-01 4.9151045612467953e-01 5.5841458614352069e-01  5.6592846384687212e-01 4.7561324058848709e-01 5.6455045615989607e-01  5.0926818221481940e-01 2.8656804416522286e-01 4.8202599060831486e-01  5.1690138440549838e-01 3.0928493724753597e-01 5.0392302888539997e-01  5.6199814925927016e-01 4.5089516602361035e-01 5.7308374101006121e-01  5.4181243118867617e-01 3.7603206578181941e-01 5.6240778027004923e-01  5.6987523648830773e-01 4.7991043663777350e-01 5.7101576574532675e-01  5.6756787458269342e-01 4.8719433137527046e-01 5.5956186176029654e-01  5.6742202136457875e-01 4.5256477119075467e-01 5.8613636788826384e-01  5.1260926886211999e-01 3.0192056603030620e-01 4.8855117332054626e-01  5.6490553753164408e-01 4.3962763086856882e-01 5.8935506606538368e-01  5.3824536226834330e-01 3.6823286127834293e-01 5.5456440336901203e-01  5.6693014394768770e-01 4.8298586676212046e-01 5.6130074059731794e-01  5.6872966672