<?xml version="1.0"?>
<VTKFile type="UnstructuredGrid"  version="0.1"  >
<UnstructuredGrid>
<Piece  NumberOfPoints="4940" NumberOfCells="9650">
<Points>
<DataArray  type="Float64"  NumberOfComponents="3"  format="ascii">500 250 0  0 250 0  250 500 0  250 0 0  256.8885856082646 499.9050767557906 0  263.7719401218049 499.6203791065173 0  270.6448364229772 499.1461232471188 0  277.5020553257866 498.4826693209355 0  284.3383895508592 497.6305211460281 0  291.1486476865662 496.5903258312597 0  297.9276581259182 495.3628732847843 0  304.6702729675493 493.9490956196674 0  311.3713719748657 492.3500664368026 0  318.0258664141369 490.5670000199653 0  324.6287029687753 488.6012504015818 0  331.1748675330201 486.4543103455647 0  337.6593890460416 484.1278102064655 0  344.0773432429536 481.6235166997244 0  350.4238564271474 478.9433315480048 0  356.694109139292 476.0892900492477 0  362.88333985546 473.0635595140469 0  368.9868485575419 469.8684376402048 0  375.0000003153078 466.5063507640667 0  380.9182288257928 462.9798520074548 0  386.7370398729688 459.2916193419558 0  392.4520147244077 455.444453565817 0  398.0588135356345 451.4412761437442 0  403.5531785622926 447.285127045646 0  408.9309374414144 442.9791624087773 0  414.1880064015299 438.5266521049243 0  419.3203932989752 433.9309773069245 0  424.324200661095 429.1956279150535 0  429.1956286596235 424.3241998957182 0  433.9309780058756 419.3203925397119 0  438.5266527445345 414.1880056671062 0  442.9791630130591 408.9309367076756 0  447.2851276060475 403.5531778422888 0  451.4412766621026 398.0588128303826 0  455.4444540361634 392.4520140460735 0  459.2916197786263 386.7370392045948 0  462.9798524073514 380.9182281752347 0  466.5063511234856 374.9999996927758 0  469.8684379657123 368.9868479560565 0  473.0635598144817 362.8833392617846 0  476.0892903190255 356.6941085676214 0  478.9433317963513 350.4238558609745 0  481.6235169154735 344.0773427117675 0  484.12781039012 337.6593885555221 0  486.4543105028062 331.1748670749914 0  488.601250531677 324.6287025528375 0  490.5670001317469 318.0258660188321 0  492.3500665291326 311.3713716102628 0  493.949095695951 304.6702726271575 0  495.3628733416623 297.9276578347343 0  496.5903258712341 291.1486474470129 0  497.6305211749058 284.3383893426084 0  498.4826693388848 277.502055163614 0  499.1461232580606 270.6448362909296 0  499.6203791109319 263.7719400417897 0  499.9050767571306 256.8885855596534 0  499.9050767559877 243.1114143988867 0  499.6203791069493 236.2280598860241 0  499.1461232485393 229.3551635941651 0  498.4826693235677 222.4979446979962 0  497.6305211491849 215.6616104719064 0  496.5903258357701 208.8513523404629 0  495.3628732906988 202.0723419043604 0  493.9490956264813 195.3297270628552 0  492.3500664487791 188.6286280724281 0  490.5670000344809 181.9741336371959 0  488.6012504175981 175.3712970824318 0  486.4543103623226 168.8251325157939 0  484.1278102222298 162.3406109960628 0  481.6235167152198 155.9226567951971 0  478.9433315621651 149.5761436051346 0  476.0892900516498 143.3058908657982 0  473.063559513628 137.1166601437124 0  469.8684376406648 131.0131514433083 0  466.5063507675389 124.9999996907064 0  462.9798520124137 119.0817711822745 0  459.2916193464549 113.2629601339176 0  455.4444535642773 107.5479852733717 0  451.4412761528674 101.9411864767781 0  447.2851270583545 96.44682145403524 0  442.9791624165781 91.06906256805769 0  438.5266521117469 85.81199360630404 0  433.9309773156125 80.67960671046254 0  429.1956279150353 75.67579933888632 0  424.3241998888952 70.80437133373906 0  419.3203925223282 66.06902197812161 0  414.1880056411937 61.47334723289828 0  408.9309366751728 57.0208369601728 0  403.5531778009394 52.71487236176898 0  398.058812796452 48.55872331295853 0  392.4520140187753 44.55554594490843 0  386.7370391799677 40.70838020528396 0  380.9182281475119 37.02014757560744 0  374.9999996718656 33.49364886444181 0  368.9868479340393 30.13156202237255 0  362.8833392380029 26.93644017348339 0  356.6941085456942 23.91070967062674 0  350.4238558420009 21.0566681953261 0  344.0773426899492 18.37648307566465 0  337.6593885328982 15.87218960140942 0  331.1748670549786 13.54568949032341 0  324.6287025315056 11.39874946165088 0  318.0258660010876 9.432999863235466 0  311.3713716017894 7.649933468721599 0  304.6702726190621 6.050904302234756 0  297.9276578269805 4.637126656823085 0  291.148647441857 3.409674127905504 0  284.3383893425031 2.369478825079682 0  277.502055159398 1.517330660648639 0  270.6448362875833 0.853876741662134 0  263.7719400401456 0.3796208889774277 0  256.8885855592052 0.09492324285704967 0  243.1114143979462 0.09492324403817065 0  236.2280598850882 0.3796208931023841 0  229.3551635938215 0.8538767514891958 0  222.4979446968584 1.517330676558146 0  215.6616104703111 2.369478851036291 0  208.8513523382973 3.409674164591252 0  202.0723419066374 4.637126708856528 0  195.3297270659513 6.050904372824903 0  188.628628074828 7.649933550613184 0  181.9741336377093 9.432999965373938 0  175.3712970793675 11.39874958336037 0  168.8251325057572 13.54568964112298 0  162.340610986655 15.87218978129263 0  155.9226567874317 18.37648328793418 0  149.576143602509 21.05666843898663 0  143.3058908718157 23.91070994551046 0  137.1166601505524 26.93644048291054 0  131.0131514451933 30.13156235831508 0  124.9999996848412 33.49364923584736 0  119.0817711715717 37.0201479941652 0  113.2629601211624 40.70838066187849 0  107.5479852622251 44.55554644345162 0  101.9411864693332 48.55872385260452 0  96.44682143286516 52.71487295812284 0  91.06906254351222 57.02083760363669 0  85.81199358272519 61.4733479087879 0  80.67960667988106 66.06902271253972 0  75.67579930062769 70.80437212218331 0  70.80437129287643 75.67580015310926 0  66.06902193673014 80.67960752263491 0  61.47334718684866 85.81199441168215 0  57.02083692524275 91.0690633672404 0  52.71487232786438 96.44682224262129 0  48.55872328070024 101.941187247437 0  44.55554591578033 107.5479860232332 0  40.7083801742321 113.2629608675606 0  37.02014754791168 119.0817718975441 0  33.49364883372994 125.000000381329 0  30.13156199866361 131.0131521097709 0  26.9364401549829 137.1166607985551 0  23.91070965524918 143.3058914868915 0  21.05666818346614 149.576144185037 0  18.37648306853811 155.9226573275967 0  15.8721895918909 162.3406114925245 0  13.54568948170046 168.8251329701392 0  11.39874945301878 175.3712974960928 0  9.432999857087736 181.9741340206533 0  7.649933466342702 188.6286284076045 0  6.050904301250966 195.3297273853278 0  4.637126656808988 202.0723421730917 0  3.409674127767772 208.8513525589684 0  2.369478824521138 215.6616106615248 0  1.517330660909465 222.4979448382452 0  0.8538767414496533 229.355163714981 0  0.3796208887135322 236.2280599646376 0  0.09492324266324204 243.1114144478261 0  0.0949232442452228 256.8885856095658 0  0.3796208935834784 263.7719401236316 0  0.8538767530323526 270.6448364248016 0  1.517330679476544 277.5020553295092 0  2.369478854618649 284.3383895555228 0  3.409674170191892 291.1486476952655 0  4.6371267162381 297.9276581311522 0  6.050904381420935 304.6702729724059 0  7.649933562385399 311.3713719716595 0  9.43299997979841 318.0258664133013 0  11.3987495994252 324.6287029719946 0  13.54568965885832 331.174867545904 0  15.87218979367188 337.6593890464085 0  18.37648329843151 344.0773432384132 0  21.05666844777872 350.423856417535 0  23.91070995156048 356.6941091410045 0  26.93644048988043 362.8833398632205 0  30.13156235982007 368.9868485575877 0  33.49364924138357 375.0000003247478 0  37.0201480006036 380.9182288389023 0  40.70838066758398 386.7370398875706 0  44.55554644477201 392.4520147396792 0  48.55872386086904 398.0588135419111 0  52.71487295981296 403.5531785693063 0  57.02083760525949 408.9309374584583 0  61.47334790862246 414.1880064170849 0  66.06902271205095 419.320393319588 0  70.80437211216579 424.3242006890749 0  75.67580013809859 429.195628692521 0  80.6796075127923 433.930978054209 0  85.81199439754931 438.5266528008431 0  91.06906334717917 442.9791630582355 0  96.44682221438322 447.2851276501571 0  101.9411872243843 451.441276702356 0  107.5479859945825 455.4444540643537 0  113.2629608446994 459.2916198108319 0  119.0817718768376 462.9798524393601 0  125.0000003647644 466.5063511567065 0  131.0131521012763 469.8684379967393 0  137.1166607840049 473.0635598376539 0  143.3058914748804 476.0892903390826 0  149.5761441732679 478.9433318113714 0  155.9226573130112 481.6235169255377 0  162.3406114779862 484.1278104026658 0  168.8251329570439 486.4543105138039 0  175.3712974805475 488.601250542119 0  181.9741340135204 490.5670001408953 0  188.6286284005059 492.3500665318597 0  195.3297273788229 493.9490956972913 0  202.0723421640089 495.3628733414168 0  208.8513525529672 496.5903258712308 0  215.6616106544547 497.6305211744985 0  222.4979448327038 498.4826693384772 0  229.3551637102845 499.1461232581612 0  236.2280599621369 499.6203791111485 0  243.1114144470173 499.9050767573145 0  155.2373389820306 474.8197567317462 0  25.36256300907667 153.9152755065208 0  432.3709625126712 412.6214396304305 0  6.013151705810699 246.637913163471 0  246.6379131630491 493.986848294322 0  338.6995838441862 22.68244767887072 0  477.3175523131281 338.6995838660569 0  493.9868482700757 246.6379131399102 0  246.6201155078769 6.218451882810491 0  417.6179310263282 72.7156044707053 0  102.2232990934413 445.0100869616822 0  63.66330858966404 92.20354579482142 0  391.3105220491464 50.73522820883105 0  72.79295043967942 418.0702734974704 0  448.290574428537 108.25674339002 0  402.4604651193511 440.7462829841712 0  97.55317348421397 59.11376320116034 0  136.7376477664901 33.58246472647134 0  363.3288394375288 465.6947312928271 0  44.0678766556007 381.0860953771871 0  469.6905266180034 142.3890690100806 0  22.68244791668644 338.6995843487432 0  338.699584349159 477.317552078365 0  173.389488083762 18.6681884918202 0  483.4809734778481 179.7121987795732 0  13.50237455842738 306.4709525540879 0  305.9825168523021 487.24416992
[...]
<PointData  Vectors="f_12"> 
<DataArray  type="Float64"  Name="f_12"  NumberOfComponents="3" format="ascii">5.4820995457390076e-01 2.3698999675561255e-01 6.6312796803818608e-01  5.2029545384972453e-01 1.7506795797093372e-01 5.8837103577393690e-01  5.5920916142099042e-01 2.7712102330994931e-01 6.7594799025228580e-01  5.6725334545121608e-01 3.2206505317687512e-01 6.7263422231180370e-01  5.5936881624484103e-01 2.7780282114373456e-01 6.7603760311113847e-01  5.5951469773694951e-01 2.7842891754378324e-01 6.7611654276594635e-01  5.5965358581184976e-01 2.7902771620224981e-01 6.7618915894833498e-01  5.5978053262593053e-01 2.7957732534115276e-01 6.7625337025485754e-01  5.5989780511561815e-01 2.8008711567188799e-01 6.7631079640021341e-01  5.6000523520431611e-01 2.8055581971065974e-01 6.7636178779951572e-01  5.6010298234267097e-01 2.8098370791950061e-01 6.7640686628368674e-01  5.6019159936235430e-01 2.8137284537699281e-01 6.7644661185082910e-01  5.6027060467341694e-01 2.8172077374195137e-01 6.7648111542556921e-01  5.6033962441916418e-01 2.8202550834721640e-01 6.7651057026892725e-01  5.6039482083742520e-01 2.8226978070870762e-01 6.7653360799228479e-01  5.6044904826607989e-01 2.8251018238137998e-01 6.7655583819048293e-01  5.6048224830164173e-01 2.8265773399689209e-01 6.7656916443905191e-01  5.6051280333154063e-01 2.8279368750113154e-01 6.7658128278496421e-01  5.6053203261799878e-01 2.8287947027766941e-01 6.7658875089703441e-01  5.6054221509127267e-01 2.8292508675616690e-01 6.7659258033694625e-01  5.6054397964317737e-01 2.8293329100316023e-01 6.7659302331481130e-01  5.6053181668144614e-01 2.8287964543264377e-01 6.7658793349133528e-01  5.6050913011651937e-01 2.8277929361584686e-01 6.7657861738464009e-01  5.6048099661395145e-01 2.8265484526077617e-01 6.7656698151093131e-01  5.6044206744603253e-01 2.8248267339032618e-01 6.7655082980652903e-01  5.6038997157848858e-01 2.8225254131527422e-01 6.7652894131723451e-01  5.6032396537906770e-01 2.8196139234733830e-01 6.7650077707147982e-01  5.6025241342493903e-01 2.8164644105384756e-01 6.7646960043623905e-01  5.6017020292271613e-01 2.8128544851177623e-01 6.7643294501376472e-01  5.6007163774939595e-01 2.8085382051848012e-01 6.7638789088766027e-01  5.5996539362168063e-01 2.8039007629875823e-01 6.7633791637203644e-01  5.5984591182000110e-01 2.7987046862808179e-01 6.7627989850406023e-01  5.5971394160202437e-01 2.7929875477631111e-01 6.7621377459894649e-01  5.5957206570243267e-01 2.7868678430627725e-01 6.7614015154329965e-01  5.5941219684746069e-01 2.7800050500678630e-01 6.7605406902423548e-01  5.5924037619558675e-01 2.7726668571983665e-01 6.7595805167523948e-01  5.5905911446193124e-01 2.7649677256334387e-01 6.7585268581849334e-01  5.5885930098645964e-01 2.7565313569203004e-01 6.7573176207282737e-01  5.5864006517362785e-01 2.7473350541425912e-01 6.7559346816651045e-01  5.5840910399198651e-01 2.7377129283679535e-01 6.7544146626987434e-01  5.5816641686858082e-01 2.7276751281175105e-01 6.7527477919203693e-01  5.5790298338156208e-01 2.7168629072006140e-01 6.7508587917568097e-01  5.5761848068897502e-01 2.7052798079128537e-01 6.7487282408776772e-01  5.5731829022611046e-01 2.6931655822750861e-01 6.7463779409224744e-01  5.5699689445972400e-01 2.6803149013395017e-01 6.7437467250290839e-01  5.5665534884573442e-01 2.6667889642181952e-01 6.7408236816102729e-01  5.5629351868876242e-01 2.6526055958795530e-01 6.7375852332461772e-01  5.5591127226913650e-01 2.6377811607698903e-01 6.7340111688732218e-01  5.5549860085809710e-01 2.6219606227027953e-01 6.7299709463184554e-01  5.5506455281356304e-01 2.6055134950480530e-01 6.7255324728172483e-01  5.5460450305548770e-01 2.5883039176217976e-01 6.7206098609652931e-01  5.5411741192374742e-01 2.5703146652241782e-01 6.7151663389578120e-01  5.5360256249449624e-01 2.5515638188198603e-01 6.7091525069137192e-01  5.5305316941760108e-01 2.5318411301359994e-01 6.7024488096394530e-01  5.5247330180621257e-01 2.5113390029345772e-01 6.6950567535602523e-01  5.5186242879107428e-01 2.4900834063645744e-01 6.6869260837419608e-01  5.5121325845229319e-01 2.4678679924079247e-01 6.6779044159895418e-01  5.5052778135557534e-01 2.4448159645859147e-01 6.6679680026833721e-01  5.4980629375626888e-01 2.4209873266541840e-01 6.6570482382242391e-01  5.4905410415897604e-01 2.3965693043165126e-01 6.6452526268832923e-01  5.4736721485904383e-01 2.3436663958643350e-01 6.6168400516976689e-01  5.4646705088697400e-01 2.3163209476767607e-01 6.6007583008326898e-01  5.4551960135791910e-01 2.2882117656805437e-01 6.5831336632179127e-01  5.4451132408814884e-01 2.2590166869349992e-01 6.5635840713602156e-01  5.4345011432648505e-01 2.2290904876859879e-01 6.5421868760506152e-01  5.4233355557131668e-01 2.1984342336646104e-01 6.5187494134916268e-01  5.4115547098575012e-01 2.1670380715624038e-01 6.4930248464720275e-01  5.3991456849755093e-01 2.1349595255246820e-01 6.4648400268132700e-01  5.3861139383121415e-01 2.1023493185024278e-01 6.4340690426285618e-01  5.3724424398750370e-01 2.0693022762967225e-01 6.4005234809844269e-01  5.3579980591329790e-01 2.0356519482421953e-01 6.3636757928644316e-01  5.3429350384646013e-01 2.0019179653343794e-01 6.3237763477529718e-01  5.3271212200248008e-01 1.9679500209379633e-01 6.2802781274055686e-01  5.3105300668672595e-01 1.9338990643352408e-01 6.2328935812320452e-01  5.2931870201155296e-01 1.9000078323312547e-01 6.1814700556703783e-01  5.2751130193630269e-01 1.8665318558521043e-01 6.1258586678246973e-01  5.2563123344711993e-01 1.8336776243179953e-01 6.0658328429674679e-01  5.2367903298089402e-01 1.8016984538104169e-01 6.0011765979199272e-01  5.2165496589883964e-01 1.7708370777509566e-01 5.9316475200673657e-01  5.1956740123913159e-01 1.7414650078636010e-01 5.8572820889222910e-01  5.1743516159356950e-01 1.7140611806904688e-01 5.7785538925996671e-01  5.1524009945642035e-01 1.6887761749005850e-01 5.6944845228747210e-01  5.1301121507313507e-01 1.6661629714718637e-01 5.6059990503903356e-01  5.1076215562527982e-01 1.6466183037364662e-01 5.5134575699168131e-01  5.0850924773893968e-01 1.6305937740136864e-01 5.4173407230511372e-01  5.0627544551836923e-01 1.6185056203789303e-01 5.3185201967968643e-01  5.0408288420027580e-01 1.6106940928591515e-01 5.2179212411874454e-01  5.0195701443208307e-01 1.6074449239968991e-01 5.1167256905248326e-01  4.9991915695060740e-01 1.6088682216342776e-01 5.0160240587187854e-01  4.9799464146658917e-01 1.6150672711007860e-01 4.9172053985088449e-01  4.9620415763042552e-01 1.6258491516109086e-01 4.8215870780723469e-01  4.9456485363941821e-01 1.6408903966578017e-01 4.7304206524864301e-01  4.9309498880997854e-01 1.6596371499530052e-01 4.6451605833891080e-01  4.9178813588304710e-01 1.6815657292947109e-01 4.5659557731557660e-01  4.9065063214201066e-01 1.7058019997783844e-01 4.4938033869305655e-01  4.8969497977107102e-01 1.7309999763362746e-01 4.4302533259994531e-01  4.8890281729853796e-01 1.7562277519335848e-01 4.3749953766032484e-01  4.8826193474916568e-01 1.7804569000361986e-01 4.3280724492440509e-01  4.8778379941199418e-01 1.8014450001576437e-01 4.2914102750584482e-01  4.8745428500686466e-01 1.8180526699671867e-01 4.2649655633209910e-01  4.8725608471405929e-01 1.8296794111086809e-01 4.2482166196564192e-01  4.8723702809885966e-01 1.8325105383374143e-01 4.2458232976295462e-01  4.8740400018693297e-01 1.8261248492555995e-01 4.2583999640871284e-01  4.8782796026309921e-01 1.8084814098266011e-01 4.2908023474651213e-01  4.8860422581988983e-01 1.7797946593324193e-01 4.3478400926508376e-01  4.8990046043306157e-01 1.7414014003180536e-01 4.4373215179242670e-01  4.9193402182942075e-01 1.6984128010162858e-01 4.5671385426514299e-01  4.9498946300177438e-01 1.6592655524814814e-01 4.7459235933812471e-01  4.9945687792096766e-01 1.6362956997337511e-01 4.9838212345463112e-01  5.0564685166735979e-01 1.6458980567414641e-01 5.2810166208620768e-01  5.1368363781218807e-01 1.7062440342675234e-01 5.6242082623440615e-01  5.2334874221519878e-01 1.8347645177794289e-01 5.9802671887701264e-01  5.3395847429449839e-01 2.0376070546764785e-01 6.3023456459078797e-01  5.4452628250303814e-01 2.3071738553512233e-01 6.5478645357241905e-01  5.5395599628255321e-01 2.6158015878000074e-01 6.6914949080291708e-01  5.6160705874277028e-01 2.9306878608532916e-01 6.7429071680803643e-01  5.7093772743364979e-01 3.4600721938636025e-01 6.6740043244645542e-01  5.7376745777360527e-01 3.6761368523166132e-01 6.6056195567875298e-01  5.7517758947180075e-01 3.8259466563335048e-01 6.5390497708412232e-01  5.7604929937968696e-01 3.9385156597251042e-01 6.4834787823697804e-01  5.7655613180605392e-01 4.0185312051878580e-01 6.4401404440826260e-01  5.7682064917351494e-01 4.0690146413598610e-01 6.4111228836013545e-01  5.7694077653283360e-01 4.0951710719871581e-01 6.3955661848427425e-01  5.7695569159070192e-01 4.0986731695304701e-01 6.3934523196477111e-01  5.7687437518077989e-01 4.0804543725376280e-01 6.4043552505114199e-01  5.7668152020840602e-01 4.0413473556706409e-01 6.4271958177100152e-01  5.7630019586748005e-01 3.9752188862481136e-01 6.4641092025734281e-01  5.7563521042977417e-01 3.8814626086150206e-01 6.5125407925999457e-01  5.7454267736954734e-01 3.7564251295577772e-01 6.5704959218360737e-01  5.7282939546603673e-01 3.5975637841035640e-01 6.6329104513270809e-01  5.7018650703071483e-01 3.3991627957957449e-01 6.6927214961990966e-01  5.6632573773809280e-01 3.1628964888675437e-01 6.7359960452001566e-01  5.6103609643504937e-01 2.8980750133359001e-01 6.7442554656575537e-01  5.5429566936123353e-01 2.6206885783497863e-01 6.6979079494559624e-01  5.4630683319665685e-01 2.3514760628442335e-01 6.5827861470013482e-01  5.3757505368863001e-01 2.1126395322113398e-01 6.3974625863731593e-01  5.2874562457076502e-01 1.9205764403446926e-01 6.1549798175073167e-01  5.2054815184233982e-01 1.7818375229631533e-01 5.8852396202088508e-01  5.1349967438199029e-01 1.6934570256942824e-01 5.6193174919163824e-01  5.0774640471149635e-01 1.6448863278419656e-01 5.3783949212440929e-01  5.0322920164211826e-01 1.6243838221085519e-01 5.1728316658502060e-01  4.9980962153314851e-01 1.6218072636164316e-01 5.0062679491305162e-01  4.9727889045986806e-01 1.6290170952321908e-01 4.8758839408269039e-01  4.9545372832325513e-01 1.6402518532082438e-01 4.7774183737356080e-01  4.9416121625913029e-01 1.6519206730344860e-01 4.7050603922890338e-01  4.9327533861240808e-01 1.6618992465385496e-01 4.6540731509083039e-01  4.9269980969892563e-01 1.6692092941341688e-01 4.6203288848387958e-01  4.9237458525733202e-01 1.6733562334827315e-01 4.6011415989065696e-01  4.9224629437598105e-01 1.6745336292814320e-01 4.5937258053159447e-01  4.9229051939253349e-01 1.6729167908515735e-01 4.5967448820289364e-01  4.9246003159571838e-01 1.6694216622743097e-01 4.6072616600750987e-01  4.9276525613105987e-01 1.6639969141968139e-01 4.6258186017487257e-01  4.9319777530180253e-01 1.6571352250428339e-01 4.6516730701573877e-01  4.9375693630004058e-01 1.6492667824121965e-01 4.6845091258894284e-01  4.9444355137959090e-01 1.6408429065789812e-01 4.7240557528674681e-01  4.9525738650738349e-01 1.6323861740491030e-01 4.7699422680477827e-01  4.9618362000049065e-01 1.6244987913417652e-01 4.8210070565601765e-01  4.9722351552659849e-01 1.6175667399624183e-01 4.8770059786664427e-01  4.9838871910647559e-01 1.6119432717396262e-01 4.9382302234135123e-01  4.9965143555649233e-01 1.6080629063747351e-01 5.0029415084242723e-01  5.0100585665068664e-01 1.6062038233229398e-01 5.0705979913692600e-01  5.0244599957175462e-01 1.6065355919648422e-01 5.1407086164295990e-01  5.0396814344283281e-01 1.6092178086467554e-01 5.2129034103086203e-01  5.0553123807971734e-01 1.6142820131344759e-01 5.2850863568788042e-01  5.0715121535925278e-01 1.6217489460454770e-01 5.3579663194613159e-01  5.0879419572802409e-01 1.6314111765071759e-01 5.4299440042604885e-01  5.1046923928489507e-01 1.6434083999602567e-01 5.5013847663867976e-01  5.1214546461490018e-01 1.6573299031781916e-01 5.5709947809373894e-01  5.1381236206795544e-01 1.6730607645051015e-01 5.6383889756048422e-01  5.1546819840992819e-01 1.6904509877267049e-01 5.7035608639074120e-01  5.1710636824099776e-01 1.7093327012962778e-01 5.7663309881790137e-01  5.1871593149503770e-01 1.7294496566051665e-01 5.8263614705076727e-01  5.2183928637030319e-01 1.7728265765050866e-01 5.9382707918412037e-01  5.2334149262760432e-01 1.7956915289455561e-01 5.9899376559688733e-01  5.2480751285524951e-01 1.8192520855085534e-01 6.0390241466698535e-01  5.2622985320704996e-01 1.8432725969492461e-01 6.0853631499722982e-01  5.2760905706894545e-01 1.8676626427697249e-01 6.1290972589419102e-01  5.2894539683157915e-01 1.8923272711121800e-01 6.1703341579716242e-01  5.3023841475226074e-01 1.9171668867485575e-01 6.2091615608145823e-01  5.3148833199332679e-01 1.9420930614933965e-01 6.2456802776809017e-01  5.3269608064532969e-01 1.9670418256895036e-01 6.2800143973516676e-01  5.3386211111178850e-01 1.9919426135777790e-01 6.3122608085401966e-01  5.3498678605303673e-01 2.0167312879748844e-01 6.3425204544928238e-01  5.3607016599628943e-01 2.0413236659761319e-01 6.3708703320180848e-01  5.3711817526714745e-01 2.0658003457244725e-01 6.3975427461835355e-01  5.3813021344065692e-01 2.0900806126162250e-01 6.4225937188818782e-01  5.3910109910460435e-01 2.1139794957646960e-01 6.4459599750888685e-01  5.4004461733120224e-01 2.1377899414154572e-01 6.4680336991400256e-01  5.4095383405186126e-01 2.1612806758121061e-01 6.4887121733947695e-01  5.4182288774549925e-01 2.1842469351306493e-01 6.5079096984326246e-01  5.4266323537911754e-01 2.2069456634377754e-01 6.5259586165281380e-01  5.4347397805235576e-01 2.2292985984226205e-01 6.5428686516975942e-01  5.4425586999914799e-01 2.2512977029600073e-01 6.5587108094708679e-01  5.4500875535965210e-01 2.2728949555584796e-01 6.5735224643860579e-01  5.4573578917485110e-01 2.2941421013042890e-01 6.5874070285723296e-01  5.4643756379182429e-01 2.3150262856994849e-01 6.6004139833658104e-01  5.4711117960187639e-01 2.3354231408834725e-01 6.6125281911151212e-01  5.4776087601139944e-01 2.3554316111800247e-01 6.6238598350699296e-01  5.4839010214082584e-01 2.3751235731767975e-01 6.6345072540777728e-01  5.4899153926791944e-01 2.3942473243968873e-01 6.6443691022161822e-01  5.4957442287103331e-01 2.4130667304727710e-01 6.6536338691600549e-01  5.5013609487699822e-01 2.4314695821682383e-01 6.6622812468991888e-01  5.5067647796677732e-01 2.4494296505984814e-01 6.6703403102537639e-01  5.5119707836229437e-01 2.4669746474218268e-01 6.6778560765287465e-01  5.5169839895742756e-01 2.4840981227280287e-01 6.6848607808084093e-01  5.5218208702662297e-01 2.5008368151133292e-01 6.6913986088186650e-01  5.5265013034204780e-01 2.5172409527176387e-01 6.6975161010110384e-01  5.5309685437710288e-01 2.5330898742928465e-01 6.7031609024954342e-01  5.5352539954705537e-01 2.5484756237975842e-01 6.7083942619899917e-01  5.5394361240799905e-01 2.5636648004743412e-01 6.7133271682647377e-01  5.5434290097890215e-01 2.5783292587520784e-01 6.7178747885196932e-01  5.5472440799416123e-01 2.5924941320701805e-01 6.7220687528110512e-01  5.5509283152181688e-01 2.6063165065126770e-01 6.7259772018653874e-01  5.5544616623367882e-01 2.6197069957120844e-01 6.7295922423485144e-01  5.5578682198050000e-01 2.6327454204948808e-01 6.7329534386408918e-01  5.5611055548285349e-01 2.6452524028569047e-01 6.7360314267488852e-01  5.5642283254991320e-01 2.6574288999360351e-01 6.7388934630732233e-01  5.5672087374445389e-01 2.6691532396392359e-01 6.7415244223127879e-01  5.5700706541757727e-01 2.6805076257479493e-01 6.7439565783678634e-01  5.5728241035823778e-01 2.6915211500042835e-01 6.7462097853033121e-01  5.5754216540766233e-01 2.7019949745760302e-01 6.7482571119606449e-01  5.5778905406114010e-01 2.7120262606073847e-01 6.7501285903149832e-01  5.5802746773043821e-01 2.7217832095525879e-01 6.7518689022504119e-01  5.5825222695982635e-01 2.7310463806248297e-01 6.7534472464200568e-01  5.5846438108144048e-01 2.7398489087834899e-01 6.7548820264280107e-01  5.5866627332393370e-01 2.7482791588175404e-01 6.7561954427520843e-01  5.5885798670926923e-01 2.7563322467914447e-01 6.7573979828379227e-01  5.5903716043037222e-01 2.7639027673894667e-01 6.7584793615890792e-01  5.5558569351444698e-01 2.6250322776493024e-01 6.7309848838629693e-01  4.9752541908186843e-01 1.6159416534876447e-01 4.8930113544644066e-01  5.5944470303389038e-01 2.7813941862621205e-01 6.7607223644667758e-01  5.1944988129781478e-01 1.7391513205817977e-01 5.8531936951382169e-01  5.5908521470125727e-01 2.7659390929678240e-01 6.7587649130985095e-01  4.8734820380170163e-01 1.8325980999782540e-01 4.2521153579636245e-01  5.5605153045320321e-01 2.6432028823330828e-01 6.7353422982642797e-01  5.4774257802914383e-01 2.3552275209824602e-01 6.6233973059284657e-01  5.6927325060812473e-01 3.3415217812774806e-01 6.7061684222168783e-01  4.9885053373346455e-01 1.6117992110752552e-01 4.9615614086381771e-01  5.5189227286885978e-01 2.4907838598662324e-01 6.6875065107508203e-01  4.9220861990310166e-01 1.6774723472975483e-01 4.5905143246761487e-01  4.9099980014571454e-01 1.6978888101099116e-01 4.5162725965202444e-01  5.4867359427185580e-01 2.3841022313291288e-01 6.6391951760578605e-01  5.1401761261523982e-01 1.6760093436695103e-01 5.6463485258101698e-01  5.6017765885811199e-01 2.8131781570334125e-01 6.7643664367748224e-01  5.0466150299313184e-01 1.6315188608403303e-01 5.2389330484746988e-01  5.5727030815984124e-01 2.7380815007977877e-01 6.7243200753305921e-01  5.6049738871134280e-01 2.8272630419292444e-01 6.7657458029636819e-01  5.4387663963971022e-01 2.2405809252927925e-01 6.5510805413811635e-01  5.2646816886063852e-01 1.8480789034328882e-01 6.0928140442081513e-01  5.3757828148092401e-01 2.0767462700540981e-01 6.4090419750309602e-01  5.6046184234468255e-01 2.8256726890129313e-01 6.7656094468482253e-01  5.7588027405512388e-01 3.9129513176146702e-01 6.4970206692181931e-01  5.3630190592560212e-01 2.0472104380317024e-01 6.3766508295170021e-01  5.3202896694397361e-01 1.9531677525011112e-01 6.2611619073855007e-01  5.6018322433632783e-01 2.8133603498144777e-01 6.7644300939669588e-01  5.5737940021871357e-01 2.6954202013038753e-01 6.7469870107007379e-01  5.0627724570545307e-01 1.6174972423292022e-01 5.3188608916989533e-01  5.0157554538735305e-01 1.6385928941277714e-01 5.0879246819026025e-01  5.5327448305952298e-01 2.5397490525423633e-01 6.7051892002052116e-01  5.5829148804322826e-01 2.7328384333765565e-01 6.7536172106548398e-01  5.7688839086019861e-01 4.0823734238229664e-01 6.4033493632992011e-01  5.4160226560608160e-01 2.1788464653810111e-01 6.5028959587035040e-01  5.2686529788033620e-01 1.8543860373550233e-01 6.1056593636852485e-01  5.5980200545888481e-01 2.7967052539602366e-01 6.7626412616207821e-01  4.8792597201085108e-01 1.7952741345834602e-01 4.3022861272122859e-01  4.9334428785624312e-01 1.6550317110143545e-01 4.6603085396610144e-01  5.5832576340298257e-01 2.7340901806882201e-01 6.7539526936721139e-01  5.5409652876710536e-01 2.5692564958555458e-01 6.7150948913768360e-01  5.1307988045430331e-01 1.6659428187195185e-01 5.6089950244998688e-01  5.3780758762641467e-01 2.1299168997231674e-01 6.4002042226518696e-01  5.5088970345237387e-01 2.4569435462667480e-01 6.6732631057015779e-01  5.6036150093251713e-01 2.8212626288808379e-01 6.7651741557018230e-01  5.5477714906675835e-01 2.5947347671252019e-01 6.7224869678484533e-01  5.7569080096048897e-01 3.8898127584542908e-01 6.5082903113082613e-01  4.9035105283164765e-01 1.7341281160825731e-01 4.4653260828174673e-01  5.4493096264614727e-01 2.2710677728477560e-01 6.5718358120252796e-01  5.0500137213199148e-01 1.6135195124824264e-01 5.2604787801641628e-01  5.5654223190245400e-01 2.6621147678079177e-01 6.7399589845527541e-01  5.5890429246117579e-01 2.7584214650042860e-01 6.7576001063691360e-01  5.4676612840368255e-01 2.3249306878243933e-01 6.6063727714011011e-01  5.2338585874400079e-01 1.8285980254906833e-01 5.9822766106098246e-01  5.4140541698958167e-01 2.1731480758508123e-01 6.4987664487694941e-01  5.0164982460937935e-01 1.6061485614792487e-01 5.1021299958691446e-01  5.5742235913224525e-01 2.6973511614395407e-01 6.7472073134805943e-01  5.5036699613