<?xml version="1.0"?>
<VTKFile type="UnstructuredGrid"  version="0.1"  >
<UnstructuredGrid>
<Piece  NumberOfPoints="4940" NumberOfCells="9650">
<Points>
<DataArray  type="Float64"  NumberOfComponents="3"  format="ascii">500 250 0  0 250 0  250 500 0  250 0 0  256.8885856082646 499.9050767557906 0  263.7719401218049 499.6203791065173 0  270.6448364229772 499.1461232471188 0  277.5020553257866 498.4826693209355 0  284.3383895508592 497.6305211460281 0  291.1486476865662 496.5903258312597 0  297.9276581259182 495.3628732847843 0  304.6702729675493 493.9490956196674 0  311.3713719748657 492.3500664368026 0  318.0258664141369 490.5670000199653 0  324.6287029687753 488.6012504015818 0  331.1748675330201 486.4543103455647 0  337.6593890460416 484.1278102064655 0  344.0773432429536 481.6235166997244 0  350.4238564271474 478.9433315480048 0  356.694109139292 476.0892900492477 0  362.88333985546 473.0635595140469 0  368.9868485575419 469.8684376402048 0  375.0000003153078 466.5063507640667 0  380.9182288257928 462.9798520074548 0  386.7370398729688 459.2916193419558 0  392.4520147244077 455.444453565817 0  398.0588135356345 451.4412761437442 0  403.5531785622926 447.285127045646 0  408.9309374414144 442.9791624087773 0  414.1880064015299 438.5266521049243 0  419.3203932989752 433.9309773069245 0  424.324200661095 429.1956279150535 0  429.1956286596235 424.3241998957182 0  433.9309780058756 419.3203925397119 0  438.5266527445345 414.1880056671062 0  442.9791630130591 408.9309367076756 0  447.2851276060475 403.5531778422888 0  451.4412766621026 398.0588128303826 0  455.4444540361634 392.4520140460735 0  459.2916197786263 386.7370392045948 0  462.9798524073514 380.9182281752347 0  466.5063511234856 374.9999996927758 0  469.8684379657123 368.9868479560565 0  473.0635598144817 362.8833392617846 0  476.0892903190255 356.6941085676214 0  478.9433317963513 350.4238558609745 0  481.6235169154735 344.0773427117675 0  484.12781039012 337.6593885555221 0  486.4543105028062 331.1748670749914 0  488.601250531677 324.6287025528375 0  490.5670001317469 318.0258660188321 0  492.3500665291326 311.3713716102628 0  493.949095695951 304.6702726271575 0  495.3628733416623 297.9276578347343 0  496.5903258712341 291.1486474470129 0  497.6305211749058 284.3383893426084 0  498.4826693388848 277.502055163614 0  499.1461232580606 270.6448362909296 0  499.6203791109319 263.7719400417897 0  499.9050767571306 256.8885855596534 0  499.9050767559877 243.1114143988867 0  499.6203791069493 236.2280598860241 0  499.1461232485393 229.3551635941651 0  498.4826693235677 222.4979446979962 0  497.6305211491849 215.6616104719064 0  496.5903258357701 208.8513523404629 0  495.3628732906988 202.0723419043604 0  493.9490956264813 195.3297270628552 0  492.3500664487791 188.6286280724281 0  490.5670000344809 181.9741336371959 0  488.6012504175981 175.3712970824318 0  486.4543103623226 168.8251325157939 0  484.1278102222298 162.3406109960628 0  481.6235167152198 155.9226567951971 0  478.9433315621651 149.5761436051346 0  476.0892900516498 143.3058908657982 0  473.063559513628 137.1166601437124 0  469.8684376406648 131.0131514433083 0  466.5063507675389 124.9999996907064 0  462.9798520124137 119.0817711822745 0  459.2916193464549 113.2629601339176 0  455.4444535642773 107.5479852733717 0  451.4412761528674 101.9411864767781 0  447.2851270583545 96.44682145403524 0  442.9791624165781 91.06906256805769 0  438.5266521117469 85.81199360630404 0  433.9309773156125 80.67960671046254 0  429.1956279150353 75.67579933888632 0  424.3241998888952 70.80437133373906 0  419.3203925223282 66.06902197812161 0  414.1880056411937 61.47334723289828 0  408.9309366751728 57.0208369601728 0  403.5531778009394 52.71487236176898 0  398.058812796452 48.55872331295853 0  392.4520140187753 44.55554594490843 0  386.7370391799677 40.70838020528396 0  380.9182281475119 37.02014757560744 0  374.9999996718656 33.49364886444181 0  368.9868479340393 30.13156202237255 0  362.8833392380029 26.93644017348339 0  356.6941085456942 23.91070967062674 0  350.4238558420009 21.0566681953261 0  344.0773426899492 18.37648307566465 0  337.6593885328982 15.87218960140942 0  331.1748670549786 13.54568949032341 0  324.6287025315056 11.39874946165088 0  318.0258660010876 9.432999863235466 0  311.3713716017894 7.649933468721599 0  304.6702726190621 6.050904302234756 0  297.9276578269805 4.637126656823085 0  291.148647441857 3.409674127905504 0  284.3383893425031 2.369478825079682 0  277.502055159398 1.517330660648639 0  270.6448362875833 0.853876741662134 0  263.7719400401456 0.3796208889774277 0  256.8885855592052 0.09492324285704967 0  243.1114143979462 0.09492324403817065 0  236.2280598850882 0.3796208931023841 0  229.3551635938215 0.8538767514891958 0  222.4979446968584 1.517330676558146 0  215.6616104703111 2.369478851036291 0  208.8513523382973 3.409674164591252 0  202.0723419066374 4.637126708856528 0  195.3297270659513 6.050904372824903 0  188.628628074828 7.649933550613184 0  181.9741336377093 9.432999965373938 0  175.3712970793675 11.39874958336037 0  168.8251325057572 13.54568964112298 0  162.340610986655 15.87218978129263 0  155.9226567874317 18.37648328793418 0  149.576143602509 21.05666843898663 0  143.3058908718157 23.91070994551046 0  137.1166601505524 26.93644048291054 0  131.0131514451933 30.13156235831508 0  124.9999996848412 33.49364923584736 0  119.0817711715717 37.0201479941652 0  113.2629601211624 40.70838066187849 0  107.5479852622251 44.55554644345162 0  101.9411864693332 48.55872385260452 0  96.44682143286516 52.71487295812284 0  91.06906254351222 57.02083760363669 0  85.81199358272519 61.4733479087879 0  80.67960667988106 66.06902271253972 0  75.67579930062769 70.80437212218331 0  70.80437129287643 75.67580015310926 0  66.06902193673014 80.67960752263491 0  61.47334718684866 85.81199441168215 0  57.02083692524275 91.0690633672404 0  52.71487232786438 96.44682224262129 0  48.55872328070024 101.941187247437 0  44.55554591578033 107.5479860232332 0  40.7083801742321 113.2629608675606 0  37.02014754791168 119.0817718975441 0  33.49364883372994 125.000000381329 0  30.13156199866361 131.0131521097709 0  26.9364401549829 137.1166607985551 0  23.91070965524918 143.3058914868915 0  21.05666818346614 149.576144185037 0  18.37648306853811 155.9226573275967 0  15.8721895918909 162.3406114925245 0  13.54568948170046 168.8251329701392 0  11.39874945301878 175.3712974960928 0  9.432999857087736 181.9741340206533 0  7.649933466342702 188.6286284076045 0  6.050904301250966 195.3297273853278 0  4.637126656808988 202.0723421730917 0  3.409674127767772 208.8513525589684 0  2.369478824521138 215.6616106615248 0  1.517330660909465 222.4979448382452 0  0.8538767414496533 229.355163714981 0  0.3796208887135322 236.2280599646376 0  0.09492324266324204 243.1114144478261 0  0.0949232442452228 256.8885856095658 0  0.3796208935834784 263.7719401236316 0  0.8538767530323526 270.6448364248016 0  1.517330679476544 277.5020553295092 0  2.369478854618649 284.3383895555228 0  3.409674170191892 291.1486476952655 0  4.6371267162381 297.9276581311522 0  6.050904381420935 304.6702729724059 0  7.649933562385399 311.3713719716595 0  9.43299997979841 318.0258664133013 0  11.3987495994252 324.6287029719946 0  13.54568965885832 331.174867545904 0  15.87218979367188 337.6593890464085 0  18.37648329843151 344.0773432384132 0  21.05666844777872 350.423856417535 0  23.91070995156048 356.6941091410045 0  26.93644048988043 362.8833398632205 0  30.13156235982007 368.9868485575877 0  33.49364924138357 375.0000003247478 0  37.0201480006036 380.9182288389023 0  40.70838066758398 386.7370398875706 0  44.55554644477201 392.4520147396792 0  48.55872386086904 398.0588135419111 0  52.71487295981296 403.5531785693063 0  57.02083760525949 408.9309374584583 0  61.47334790862246 414.1880064170849 0  66.06902271205095 419.320393319588 0  70.80437211216579 424.3242006890749 0  75.67580013809859 429.195628692521 0  80.6796075127923 433.930978054209 0  85.81199439754931 438.5266528008431 0  91.06906334717917 442.9791630582355 0  96.44682221438322 447.2851276501571 0  101.9411872243843 451.441276702356 0  107.5479859945825 455.4444540643537 0  113.2629608446994 459.2916198108319 0  119.0817718768376 462.9798524393601 0  125.0000003647644 466.5063511567065 0  131.0131521012763 469.8684379967393 0  137.1166607840049 473.0635598376539 0  143.3058914748804 476.0892903390826 0  149.5761441732679 478.9433318113714 0  155.9226573130112 481.6235169255377 0  162.3406114779862 484.1278104026658 0  168.8251329570439 486.4543105138039 0  175.3712974805475 488.601250542119 0  181.9741340135204 490.5670001408953 0  188.6286284005059 492.3500665318597 0  195.3297273788229 493.9490956972913 0  202.0723421640089 495.3628733414168 0  208.8513525529672 496.5903258712308 0  215.6616106544547 497.6305211744985 0  222.4979448327038 498.4826693384772 0  229.3551637102845 499.1461232581612 0  236.2280599621369 499.6203791111485 0  243.1114144470173 499.9050767573145 0  155.2373389820306 474.8197567317462 0  25.36256300907667 153.9152755065208 0  432.3709625126712 412.6214396304305 0  6.013151705810699 246.637913163471 0  246.6379131630491 493.986848294322 0  338.6995838441862 22.68244767887072 0  477.3175523131281 338.6995838660569 0  493.9868482700757 246.6379131399102 0  246.6201155078769 6.218451882810491 0  417.6179310263282 72.7156044707053 0  102.2232990934413 445.0100869616822 0  63.66330858966404 92.20354579482142 0  391.3105220491464 50.73522820883105 0  72.79295043967942 418.0702734974704 0  448.290574428537 108.25674339002 0  402.4604651193511 440.7462829841712 0  97.55317348421397 59.11376320116034 0  136.7376477664901 33.58246472647134 0  363.3288394375288 465.6947312928271 0  44.0678766556007 381.0860953771871 0  469.6905266180034 142.3890690100806 0  22.68244791668644 338.6995843487432 0  338.699584349159 477.317552078365 0  173.389488083762 18.6681884918202 0  483.4809734778481 179.7121987795732 0  13.50237455842738 306.4709525540879 0  305.9825168523021 487.24416992
[...]
<PointData  Vectors="f_12"> 
<DataArray  type="Float64"  Name="f_12"  NumberOfComponents="3" format="ascii">4.8304090595631377e-01 1.8061709466346459e-01 9.1376312717541139e-02  4.8202024803164051e-01 1.5534702950037560e-01 1.0212935333396081e-01  4.8529251244118021e-01 2.0565447095014919e-01 8.4577662041082927e-02  4.8450457980878692e-01 1.2080064353259411e-01 1.3027939427934940e-01  4.8532927960854627e-01 2.0599364339472834e-01 8.4503828662361960e-02  4.8536211364084386e-01 2.0629520924486239e-01 8.4438588475000229e-02  4.8539491678854008e-01 2.0659559839760178e-01 8.4373869132725224e-02  4.8542438082784117e-01 2.0686445895934064e-01 8.4316244889060449e-02  4.8545193028163097e-01 2.0711506805418925e-01 8.4262773061091228e-02  4.8547716253627876e-01 2.0734405708734774e-01 8.4214073781882115e-02  4.8550014606153324e-01 2.0755211821907738e-01 8.4169988595439574e-02  4.8552122480512089e-01 2.0774252087486206e-01 8.4129772781611045e-02  4.8553997027342993e-01 2.0791153225517198e-01 8.4094170214470437e-02  4.8555608939155442e-01 2.0805657848763354e-01 8.4063708006371418e-02  4.8556688201000459e-01 2.0815340999126755e-01 8.4043467165527991e-02  4.8558060061794672e-01 2.0827674623578527e-01 8.4017587454289028e-02  4.8558436278216843e-01 2.0831028609804661e-01 8.4010649452181799e-02  4.8558993625819930e-01 2.0836030909484035e-01 8.4000180187192922e-02  4.8559162635893210e-01 2.0837541276371752e-01 8.3997043902758514e-02  4.8559074599273766e-01 2.0836753866236069e-01 8.3998683267371685e-02  4.8558768697204124e-01 2.0834032566512256e-01 8.4004282898808638e-02  4.8557920721366399e-01 2.0826415595756270e-01 8.4020246927106121e-02  4.8556731492163141e-01 2.0815723628750471e-01 8.4042690057635608e-02  4.8555509555136950e-01 2.0804758687009495e-01 8.4065611379070232e-02  4.8553919370908383e-01 2.0790459523373875e-01 8.4095607992508536e-02  4.8551848350298876e-01 2.0771778206373837e-01 8.4134989865608467e-02  4.8549236181297584e-01 2.0748152514188867e-01 8.4184996298292972e-02  4.8546614582336717e-01 2.0724406621002345e-01 8.4235348840711766e-02  4.8543681580866926e-01 2.0697763922125703e-01 8.4292077132101309e-02  4.8540097490089251e-01 2.0665073466921668e-01 8.4362111189368802e-02  4.8536410765898585e-01 2.0631333797248244e-01 8.4434736360723059e-02  4.8532310846242960e-01 2.0593646242133226e-01 8.4516369497344188e-02  4.8527843606724719e-01 2.0552389594257647e-01 8.4606335483105977e-02  4.8523184427870480e-01 2.0509163939117614e-01 8.4701181807568138e-02  4.8517923773647903e-01 2.0460065066782712e-01 8.4809814001814615e-02  4.8512409313623928e-01 2.0408280933742257e-01 8.4925360205488715e-02  4.8506796111721034e-01 2.0355265349035609e-01 8.5044547570811271e-02  4.8500660398686624e-01 2.0296884615788643e-01 8.5177102210591313e-02  4.8494012172556600e-01 2.0233100225045322e-01 8.5323530814962092e-02  4.8487244197168911e-01 2.0167650262651482e-01 8.5475308768265118e-02  4.8480391772557729e-01 2.0100824377321624e-01 8.5631920948218351e-02  4.8473088748620380e-01 2.0028910136176697e-01 8.5802511219818967e-02  4.8465355000163163e-01 1.9951990852904575e-01 8.5987204963151320e-02  4.8457510389207326e-01 1.9873107607559667e-01 8.6179116202564993e-02  4.8449372935269869e-01 1.9790306041914393e-01 8.6383370542567658e-02  4.8441010762228176e-01 1.9704182491577066e-01 8.6598760251313064e-02  4.8432485046466578e-01 1.9615215679183792e-01 8.6824532093387891e-02  4.8423846888972155e-01 1.9523794615361617e-01 8.7060139707739112e-02  4.8414829562413075e-01 1.9426884512818818e-01 8.7313962481752133e-02  4.8405758608470795e-01 1.9327866335356328e-01 8.7577502580745883e-02  4.8396616852512464e-01 1.9226298272906639e-01 8.7852634510832153e-02  4.8387354292250673e-01 1.9121579544580189e-01 8.8141112793488977e-02  4.8378082477492301e-01 1.9014666842586336e-01 8.8441133255132795e-02  4.8368650515375156e-01 1.8903649315424292e-01 8.8758519254298673e-02  4.8359243091010257e-01 1.8790467669899380e-01 8.9088324671179095e-02  4.8349912221354802e-01 1.8675527687842466e-01 8.9429960047804513e-02  4.8340554215078702e-01 1.8557355337871692e-01 8.9788290091682724e-02  4.8331287019169228e-01 1.8437101195503725e-01 9.0160712219363712e-02  4.8322133645086257e-01 1.8315119969271101e-01 9.0545908251736473e-02  4.8313241014168540e-01 1.8193197106360909e-01 9.0938850024346721e-02  4.8295408418367369e-01 1.7934605097930087e-01 9.1803807874040480e-02  4.8286953675052513e-01 1.7805148931677559e-01 9.2251473843484075e-02  4.8278801934432269e-01 1.7675034344928278e-01 9.2712209599061207e-02  4.8270789614338244e-01 1.7541669748433619e-01 9.3195081510723379e-02  4.8263135439577559e-01 1.7407640315453174e-01 9.3692970344195395e-02  4.8255784498394133e-01 1.7272464088004955e-01 9.4206655544673820e-02  4.8248824562927689e-01 1.7136506703696047e-01 9.4737134742209295e-02  4.8242231167742444e-01 1.6999575569791234e-01 9.5284642915155690e-02  4.8236062805373681e-01 1.6862239023385597e-01 9.5848016801892394e-02  4.8230346957709919e-01 1.6724758017372643e-01 9.6426764968821216e-02  4.8225055961783453e-01 1.6586200686218272e-01 9.7025193487178377e-02  4.8220287609303997e-01 1.6448346710009062e-01 9.7636732572680449e-02  4.8216000741614906e-01 1.6310145653834918e-01 9.8265901856111879e-02  4.8212233790515535e-01 1.6171849152605955e-01 9.8912666846947980e-02  4.8209004021042823e-01 1.6033808352979806e-01 9.9575710292232569e-02  4.8206340160346250e-01 1.5896398962272779e-01 1.0025399636023931e-01  4.8204241652636282e-01 1.5759610296927243e-01 1.0094763267982677e-01  4.8202727846818416e-01 1.5623596055275854e-01 1.0165651508078605e-01  4.8201803930421794e-01 1.5488336149010223e-01 1.0238101886605447e-01  4.8201476614696154e-01 1.5354099711648442e-01 1.0311996115154549e-01  4.8201743639649186e-01 1.5221217863956515e-01 1.0387150247134055e-01  4.8202633725355409e-01 1.5089549959174672e-01 1.0463753251486078e-01  4.8204125045183766e-01 1.4959147827338848e-01 1.0541710311646853e-01  4.8206212665152676e-01 1.4830579951114517e-01 1.0620696462314229e-01  4.8208901643431673e-01 1.4703576966240309e-01 1.0700890190743295e-01  4.8212181735225146e-01 1.4578387256155295e-01 1.0782127580072363e-01  4.8216039813890904e-01 1.4455115710243452e-01 1.0864314243936593e-01  4.8220467916935594e-01 1.4333910346238316e-01 1.0947350501837901e-01  4.8225432748288605e-01 1.4214968439023512e-01 1.1031018451078847e-01  4.8230939337323075e-01 1.4098202684063343e-01 1.1115395236648599e-01  4.8236947822201814e-01 1.3983869524904247e-01 1.1200206010532164e-01  4.8243438494204055e-01 1.3872016880327440e-01 1.1285363723888846e-01  4.8250409647946274e-01 1.3762483999385852e-01 1.1370960607202801e-01  4.8257791389720511e-01 1.3655773541283278e-01 1.1456476611525432e-01  4.8265521798643557e-01 1.3552415136875720e-01 1.1541404469914891e-01  4.8273664370019903e-01 1.3451228457182604e-01 1.1626632882717160e-01  4.8282147381353380e-01 1.3352720051866918e-01 1.1711630254985848e-01  4.8290833790234766e-01 1.3258107145467574e-01 1.1795236175700485e-01  4.8299827864556683e-01 1.3165824882559293e-01 1.1878697355403156e-01  4.8309091032441992e-01 1.3075957517069911e-01 1.1961830729225995e-01  4.8318361553084377e-01 1.2990651446405357e-01 1.2042510045253702e-01  4.8327805879889674e-01 1.2908139038304559e-01 1.2122314720315276e-01  4.8337277182917116e-01 1.2829013881567364e-01 1.2200387514478564e-01  4.8346808025648541e-01 1.2752893287167455e-01 1.2277057732527229e-01  4.8356288150301874e-01 1.2680247442594622e-01 1.2351666468605958e-01  4.8365704953785121e-01 1.2610878926157254e-01 1.2424275746225412e-01  4.8374977427465854e-01 1.2545030743640373e-01 1.2494455070487422e-01  4.8384041841599962e-01 1.2482837146161721e-01 1.2561895446554006e-01  4.8392932247540277e-01 1.2423795785837917e-01 1.2626995882779074e-01  4.8401592098247392e-01 1.2367970137679489e-01 1.2689512890035642e-01  4.8409906169419153e-01 1.2315838137333888e-01 1.2748755824393598e-01  4.8417807060475609e-01 1.2267615114150786e-01 1.2804355898521327e-01  4.8425256432489389e-01 1.2223226735318508e-01 1.2856208070914540e-01  4.8432356835974216e-01 1.2181837280339428e-01 1.2905145951159303e-01  4.8438915260247928e-01 1.2144363876084270e-01 1.2949951019888806e-01  4.8444995243012762e-01 1.2110249240577688e-01 1.2991158427565810e-01  4.8455110990921829e-01 1.2054820007254476e-01 1.3059021160717399e-01  4.8460234542238867e-01 1.2027105092636720e-01 1.3093207877609125e-01  4.8463461437184119e-01 1.2010056318350518e-01 1.3114525174337829e-01  4.8466520223991877e-01 1.1993949821479238e-01 1.3134703543470916e-01  4.8468988301927984e-01 1.1981024819966363e-01 1.3150948727095585e-01  4.8470693190884317e-01 1.1972169961872169e-01 1.3162131426442572e-01  4.8471652043791980e-01 1.1967197534199882e-01 1.3168417245115838e-01  4.8472018096514868e-01 1.1965302068491027e-01 1.3170815349169687e-01  4.8471657850165906e-01 1.1967168166408788e-01 1.3168454979488770e-01  4.8471131195798328e-01 1.1969869574915544e-01 1.3165018001042361e-01  4.8469157437786331e-01 1.1980146477869015e-01 1.3152057857278143e-01  4.8466762827701271e-01 1.1992673087033424e-01 1.3136303781711761e-01  4.8463745324318941e-01 1.2008581227935411e-01 1.3116386605309549e-01  4.8460296091969979e-01 1.2026872459809992e-01 1.3093565659628709e-01  4.8456148859070686e-01 1.2049113423335912e-01 1.3065996401380295e-01  4.8451232829346164e-01 1.2075829619498135e-01 1.3033131332687697e-01  4.8445894924062838e-01 1.2105240924855620e-01 1.2997235533427492e-01  4.8440056617110583e-01 1.2137903455509444e-01 1.2957716172640407e-01  4.8433757764492608e-01 1.2173754930847754e-01 1.2914757996621584e-01  4.8427005830576753e-01 1.2212926999155149e-01 1.2868319263806241e-01  4.8419773732489996e-01 1.2255815351360307e-01 1.2818087062260713e-01  4.8412127452142673e-01 1.2302194914905469e-01 1.2764431381005989e-01  4.8404212506662581e-01 1.2351386262804413e-01 1.2708265366670968e-01  4.8396035616221350e-01 1.2403572873825754e-01 1.2649515005007353e-01  4.8387592000983010e-01 1.2459004916961124e-01 1.2588027802755222e-01  4.8378937164017016e-01 1.2517572695089507e-01 1.2524070218929520e-01  4.8370103495382322e-01 1.2579300779399821e-01 1.2457749509766401e-01  4.8361151920511775e-01 1.2644035873169601e-01 1.2389374422850336e-01  4.8352110834864975e-01 1.2711836103488769e-01 1.2319017858033129e-01  4.8343033520127582e-01 1.2782577970593575e-01 1.2246942594286901e-01  4.8333960272106868e-01 1.2856225785078249e-01 1.2173315059052520e-01  4.8324961620618795e-01 1.2932481482649452e-01 1.2098555171164407e-01  4.8316060524421095e-01 1.3011371233073385e-01 1.2022730502202995e-01  4.8307289361698424e-01 1.3092969434465229e-01 1.1945915183428078e-01  4.8298638256523913e-01 1.3177578437492643e-01 1.1867904162858808e-01  4.8290193285503263e-01 1.3264741027766883e-01 1.1789258055200857e-01  4.8281989744920722e-01 1.3354336550984791e-01 1.1710166961069961e-01  4.8274064874551775e-01 1.3446227484084652e-01 1.1630836721834295e-01  4.8266444134673375e-01 1.3540354073988881e-01 1.1551386813057568e-01  4.8259168200509733e-01 1.3636515239748265e-01 1.1472069075815436e-01  4.8252189229997977e-01 1.3735687342156552e-01 1.1392166048562832e-01  4.8245606054726842e-01 1.3836592876181991e-01 1.1312732070092046e-01  4.8239464078403105e-01 1.3938961517722265e-01 1.1234072998977013e-01  4.8233703203900979e-01 1.4043711476945189e-01 1.1155457869475278e-01  4.8228379328663851e-01 1.4150398465594874e-01 1.1077325278474527e-01  4.8223504866333594e-01 1.4258861731248362e-01 1.0999800923921947e-01  4.8219116347489821e-01 1.4368330926426293e-01 1.0923434681414505e-01  4.8215182880960278e-01 1.4480041012114178e-01 1.0847422960574916e-01  4.8211748962941403e-01 1.4592967656149489e-01 1.0772485375084564e-01  4.8208784777477853e-01 1.4707052718171149e-01 1.0698539332708909e-01  4.8206347562881974e-01 1.4822394279551115e-01 1.0625727599328323e-01  4.8204379605631698e-01 1.4939095672935518e-01 1.0553778481688605e-01  4.8202924278954123e-01 1.5056669928671301e-01 1.0483110474989568e-01  4.8201963254216706e-01 1.5175105547959919e-01 1.0413657280990173e-01  4.8201498708604695e-01 1.5294408888785313e-01 1.0345416466786335e-01  4.8201518661734216e-01 1.5414204904705309e-01 1.0278548078777110e-01  4.8203004444635311e-01 1.5655692397109580e-01 1.0148645292064015e-01  4.8204443483149917e-01 1.5776819511071549e-01 1.0085820259802576e-01  4.8206347157020657e-01 1.5898493011173034e-01 1.0024245900921010e-01  4.8208685085221120e-01 1.6020119985775572e-01 9.9641417425457623e-02  4.8211452810420552e-01 1.6141719388019263e-01 9.9054784946565999e-02  4.8214633572157112e-01 1.6263243305098785e-01 9.8482204614809693e-02  4.8218214563734940e-01 1.6384566340124113e-01 9.7923901972234134e-02  4.8222173613474179e-01 1.6505505284715571e-01 9.7380103211856500e-02  4.8226498305816951e-01 1.6626016668535379e-01 9.6850601988105509e-02  4.8231167438324518e-01 1.6745972101483561e-01 9.6335359375974386e-02  4.8236168158722298e-01 1.6865239234456417e-01 9.5834671087660209e-02  4.8241447659445430e-01 1.6983265425682470e-01 9.5349808384709564e-02  4.8247042829737075e-01 1.7100953901420105e-01 9.4876940150501854e-02  4.8252909143618711e-01 1.7217739994957504e-01 9.4417724791771324e-02  4.8258985504521484e-01 1.7332766821052828e-01 9.3974898045071323e-02  4.8265373861970623e-01 1.7448100399631195e-01 9.3540265298521372e-02  4.8271964648079474e-01 1.7562049725104509e-01 9.3119649845330471e-02  4.8278652018787971e-01 1.7673190526036417e-01 9.2717495769295347e-02  4.8285562520150888e-01 1.7783659179987460e-01 9.2326078209494927e-02  4.8292600007736614e-01 1.7892511819451654e-01 9.1947430282795992e-02  4.8299783305521843e-01 1.7999977346710161e-01 9.1580945785175394e-02  4.8307077121005226e-01 1.8105820158488287e-01 9.1226762726612703e-02  4.8314474961914633e-01 1.8210184225516862e-01 9.0883858484349003e-02  4.8321975334259637e-01 1.8313155317575489e-01 9.0551714979709694e-02  4.8329460626550191e-01 1.8413369548393002e-01 9.0234145162680593e-02  4.8337019025519862e-01 1.8512175785408183e-01 8.9926460241536457e-02  4.8344640336188643e-01 1.8609633067158957e-01 8.9628029251463071e-02  4.8352170230846464e-01 1.8703879870663601e-01 8.9344254017155955e-02  4.8359777725653141e-01 1.8797203809099142e-01 8.9067836420787042e-02  4.8367348644737074e-01 1.8888387729464731e-01 8.8801877629488379e-02  4.8374857962087736e-01 1.8977210093285118e-01 8.8546853370607553e-02  4.8382324238963331e-01 1.9064052811824322e-01 8.8301219960353200e-02  4.8389723676029905e-01 1.9148756606352652e-01 8.8065123248773775e-02  4.8397083371595068e-01 1.9231730772802641e-01 8.7837157591941023e-02  4.8404431868731257e-01 1.9313409087287270e-01 8.7615813452376914e-02  4.8411539644064233e-01 1.9391339107642211e-01 8.7407483861318677e-02  4.8418526182310462e-01 1.9466945034298549e-01 8.7208042021108448e-02  4.8425611293497683e-01 1.9542713045829305e-01 8.7010613684716895e-02  4.8432463542572540e-01 1.9615122159374701e-01 8.6824326463326065e-02  4.8439116615939326e-01 1.9684634119803535e-01 8.6647692455375833e-02  4.8445710286849974e-01 1.9752830608322994e-01 8.6476329249796480e-02  4.8452137696900249e-01 1.9818655961010481e-01 8.6312751224700460e-02  4.8458510013720191e-01 1.9883287648471537e-01 8.6153930034483753e-02  4.8464571734670564e-01 1.9944239993449187e-01 8.6005645304918638e-02  4.8470606094114016e-01 2.0004382304285212e-01 8.5860883218735862e-02  4.8476424624217956e-01 2.0061913387896774e-01 8.5723732267717637e-02  4.8482121785151094e-01 2.0117828782404115e-01 8.5591622198186487e-02  4.8487725202341936e-01 2.0172422890704622e-01 8.5463811022268549e-02  4.8493018310699942e-01 2.0223595747067519e-01 8.5345212988761202e-02  4.8498110236189723e-01 2.0272522640636043e-01 8.5232687269636190e-02  4.8503192107916726e-01 2.0321066405565386e-01 8.5121890141381384e-02  4.8507999701159221e-01 2.0366704647082737e-01 8.5018581779510466e-02  4.8512565934315621e-01 2.0409798332516277e-01 8.4921806800882432e-02  4.8516999202586891e-01 2.0451437067187456e-01 8.4828879379728772e-02  4.8521270236798453e-01 2.0491356508390776e-01 8.4740389663366070e-02  4.8525263706308708e-01 2.0528503771827153e-01 8.4658576683638728e-02  4.8453620065250047e-01 1.9833659882514024e-01 8.6276017551360940e-02  4.8243252499311301e-01 1.3874896823780170e-01 1.1283101465029335e-01  4.8518106964621693e-01 2.0461705816970294e-01 8.4806457961493178e-02  4.8201708908753071e-01 1.5472414046327918e-01 1.0246669783548365e-01  4.8524941466079907e-01 2.0525433872421470e-01 8.4665616481841469e-02  4.8340789020779112e-01 1.2800694047957201e-01 1.2228784481364514e-01  4.8426275265163166e-01 1.9549494057710246e-01 8.6993970412483121e-02  4.8298914863997106e-01 1.7986958051737284e-01 9.1625557519357179e-02  4.8450588708740611e-01 1.2079426656173993e-01 1.3028773291105969e-01  4.8228010750880657e-01 1.4158816448673703e-01 1.1071346365598501e-01  4.8391990427164555e-01 1.9174358710039272e-01 8.7994693469595112e-02  4.8328412910112928e-01 1.2902929903587884e-01 1.2127393038767398e-01  4.8262040584206339e-01 1.3598116887337602e-01 1.1503623850137938e-01  4.8347572706017622e-01 1.8646479334130531e-01 8.9516770892992453e-02  4.8203332049729020e-01 1.5022164766237339e-01 1.0503789782865729e-01  4.8542939650502825e-01 2.0690913140400172e-01 8.4307081611571508e-02  4.8390704706327770e-01 1.2438454574178867e-01 1.2610755792248146e-01  4.8441007184996959e-01 1.2132632583009552e-01 1.2964124935560964e-01  4.8555622450825392e-01 2.0805699998967847e-01 8.4063947402834543e-02  4.8295915643567222e-01 1.7942426527727412e-01 9.1776586855586609e-02  4.8205128955136356e-01 1.5821604094768710e-01 1.0063114886593305e-01  4.8249504338178151e-01 1.7150759252593062e-01 9.4679842262214445e-02  4.8556330117632451e-01 2.0812046499099071e-01 8.4050673739149970e-02  4.8465213946433555e-01 1.2000873094942069e-01 1.3126061410944379e-01  4.8226817982032039e-01 1.6633643299756340e-01 9.6818699796991856e-02  4.8224008973940002e-01 1.6557721235361897e-01 9.7149441200087755e-02  4.8550223411746318e-01 2.0757003498900789e-01 8.4166569003592817e-02  4.8488301035254877e-01 2.0177918118134947e-01 8.5451358360346161e-02  4.8213357122326456e-01 1.4538232532413586e-01 1.0808610635094623e-01  4.8395480225352050e-01 1.2407301071430145e-01 1.2645426195692272e-01  4.8371896209772147e-01 1.8942047439046020e-01 8.8648292822777461e-02  4.8483123371968478e-01 2.0127428822781757e-01 8.5569729242538389e-02  4.8469218597308950e-01 1.1979916639453331e-01 1.3152412060547114e-01  4.8251323951876979e-01 1.7186121405589233e-01 9.4542279758544123e-02  4.8209915278907350e-01 1.6076244917286442e-01 9.9369100894545218e-02  4.8541443878769974e-01 2.0677286244792634e-01 8.4336213964652629e-02  4.8294362754155690e-01 1.3221474454022350e-01 1.1828215161868594e-01  4.8277456280149622e-01 1.3406306285319597e-01 1.1665113113429086e-01  4.8508220508382077e-01 2.0368697957273449e-01 8.5014443720467875e-02  4.8427157020386197e-01 1.9559071506178885e-01 8.6968512624782807e-02  4.8203444760813319e-01 1.5009905129482717e-01 1.0511018368459919e-01  4.8426196189051890e-01 1.2217796587114850e-01 1.2862658704732732e-01  4.8335759960074853e-01 1.8495413006505348e-01 8.9979529540177433e-02  4.8549377659673709e-01 2.0749328700516589e-01 8.4182912384422118e-02  4.8399298912149030e-01 1.9256184759369444e-01 8.7771499451067422e-02  4.8463301326494557e-01 1.2011009344040602e-01 1.3113409693307712e-01  4.8368768176055915e-01 1.2588947475751899e-01 1.2447554905940869e-01  4.8273849699441979e-01 1.7593329790707699e-01 9.3006707440669634e-02  4.8214143778850255e-01 1.4513468160948204e-01 1.0825166010523404e-01  4.8471620843197727e-01 2.0014349471899681e-01 8.5837364104063466e-02  4.8500878426525029e-01 2.0298871169860733e-01 8.5172941201600141e-02  4.8325001492180647e-01 1.8353881970187552e-01 9.0422204880075185e-02  4.8414088535838262e-01 1.2290284176887603e-01 1.2778200430484457e-01  4.8275142932113652e-01 1.7615347188809008e-01 9.2925929351225983e-02  4.8225749949447538e-01 1.4207727914337143e-01 1.1036161714514441e-01  4.8459389562911603e-01 1.9891999668526808e-01 8.6133224161515393e-02  4.8369812404