<?xml version="1.0"?>
<VTKFile type="UnstructuredGrid"  version="0.1"  >
<UnstructuredGrid>
<Piece  NumberOfPoints="4940" NumberOfCells="9650">
<Points>
<DataArray  type="Float64"  NumberOfComponents="3"  format="ascii">500 250 0  0 250 0  250 500 0  250 0 0  256.8885856082646 499.9050767557906 0  263.7719401218049 499.6203791065173 0  270.6448364229772 499.1461232471188 0  277.5020553257866 498.4826693209355 0  284.3383895508592 497.6305211460281 0  291.1486476865662 496.5903258312597 0  297.9276581259182 495.3628732847843 0  304.6702729675493 493.9490956196674 0  311.3713719748657 492.3500664368026 0  318.0258664141369 490.5670000199653 0  324.6287029687753 488.6012504015818 0  331.1748675330201 486.4543103455647 0  337.6593890460416 484.1278102064655 0  344.0773432429536 481.6235166997244 0  350.4238564271474 478.9433315480048 0  356.694109139292 476.0892900492477 0  362.88333985546 473.0635595140469 0  368.9868485575419 469.8684376402048 0  375.0000003153078 466.5063507640667 0  380.9182288257928 462.9798520074548 0  386.7370398729688 459.2916193419558 0  392.4520147244077 455.444453565817 0  398.0588135356345 451.4412761437442 0  403.5531785622926 447.285127045646 0  408.9309374414144 442.9791624087773 0  414.1880064015299 438.5266521049243 0  419.3203932989752 433.9309773069245 0  424.324200661095 429.1956279150535 0  429.1956286596235 424.3241998957182 0  433.9309780058756 419.3203925397119 0  438.5266527445345 414.1880056671062 0  442.9791630130591 408.9309367076756 0  447.2851276060475 403.5531778422888 0  451.4412766621026 398.0588128303826 0  455.4444540361634 392.4520140460735 0  459.2916197786263 386.7370392045948 0  462.9798524073514 380.9182281752347 0  466.5063511234856 374.9999996927758 0  469.8684379657123 368.9868479560565 0  473.0635598144817 362.8833392617846 0  476.0892903190255 356.6941085676214 0  478.9433317963513 350.4238558609745 0  481.6235169154735 344.0773427117675 0  484.12781039012 337.6593885555221 0  486.4543105028062 331.1748670749914 0  488.601250531677 324.6287025528375 0  490.5670001317469 318.0258660188321 0  492.3500665291326 311.3713716102628 0  493.949095695951 304.6702726271575 0  495.3628733416623 297.9276578347343 0  496.5903258712341 291.1486474470129 0  497.6305211749058 284.3383893426084 0  498.4826693388848 277.502055163614 0  499.1461232580606 270.6448362909296 0  499.6203791109319 263.7719400417897 0  499.9050767571306 256.8885855596534 0  499.9050767559877 243.1114143988867 0  499.6203791069493 236.2280598860241 0  499.1461232485393 229.3551635941651 0  498.4826693235677 222.4979446979962 0  497.6305211491849 215.6616104719064 0  496.5903258357701 208.8513523404629 0  495.3628732906988 202.0723419043604 0  493.9490956264813 195.3297270628552 0  492.3500664487791 188.6286280724281 0  490.5670000344809 181.9741336371959 0  488.6012504175981 175.3712970824318 0  486.4543103623226 168.8251325157939 0  484.1278102222298 162.3406109960628 0  481.6235167152198 155.9226567951971 0  478.9433315621651 149.5761436051346 0  476.0892900516498 143.3058908657982 0  473.063559513628 137.1166601437124 0  469.8684376406648 131.0131514433083 0  466.5063507675389 124.9999996907064 0  462.9798520124137 119.0817711822745 0  459.2916193464549 113.2629601339176 0  455.4444535642773 107.5479852733717 0  451.4412761528674 101.9411864767781 0  447.2851270583545 96.44682145403524 0  442.9791624165781 91.06906256805769 0  438.5266521117469 85.81199360630404 0  433.9309773156125 80.67960671046254 0  429.1956279150353 75.67579933888632 0  424.3241998888952 70.80437133373906 0  419.3203925223282 66.06902197812161 0  414.1880056411937 61.47334723289828 0  408.9309366751728 57.0208369601728 0  403.5531778009394 52.71487236176898 0  398.058812796452 48.55872331295853 0  392.4520140187753 44.55554594490843 0  386.7370391799677 40.70838020528396 0  380.9182281475119 37.02014757560744 0  374.9999996718656 33.49364886444181 0  368.9868479340393 30.13156202237255 0  362.8833392380029 26.93644017348339 0  356.6941085456942 23.91070967062674 0  350.4238558420009 21.0566681953261 0  344.0773426899492 18.37648307566465 0  337.6593885328982 15.87218960140942 0  331.1748670549786 13.54568949032341 0  324.6287025315056 11.39874946165088 0  318.0258660010876 9.432999863235466 0  311.3713716017894 7.649933468721599 0  304.6702726190621 6.050904302234756 0  297.9276578269805 4.637126656823085 0  291.148647441857 3.409674127905504 0  284.3383893425031 2.369478825079682 0  277.502055159398 1.517330660648639 0  270.6448362875833 0.853876741662134 0  263.7719400401456 0.3796208889774277 0  256.8885855592052 0.09492324285704967 0  243.1114143979462 0.09492324403817065 0  236.2280598850882 0.3796208931023841 0  229.3551635938215 0.8538767514891958 0  222.4979446968584 1.517330676558146 0  215.6616104703111 2.369478851036291 0  208.8513523382973 3.409674164591252 0  202.0723419066374 4.637126708856528 0  195.3297270659513 6.050904372824903 0  188.628628074828 7.649933550613184 0  181.9741336377093 9.432999965373938 0  175.3712970793675 11.39874958336037 0  168.8251325057572 13.54568964112298 0  162.340610986655 15.87218978129263 0  155.9226567874317 18.37648328793418 0  149.576143602509 21.05666843898663 0  143.3058908718157 23.91070994551046 0  137.1166601505524 26.93644048291054 0  131.0131514451933 30.13156235831508 0  124.9999996848412 33.49364923584736 0  119.0817711715717 37.0201479941652 0  113.2629601211624 40.70838066187849 0  107.5479852622251 44.55554644345162 0  101.9411864693332 48.55872385260452 0  96.44682143286516 52.71487295812284 0  91.06906254351222 57.02083760363669 0  85.81199358272519 61.4733479087879 0  80.67960667988106 66.06902271253972 0  75.67579930062769 70.80437212218331 0  70.80437129287643 75.67580015310926 0  66.06902193673014 80.67960752263491 0  61.47334718684866 85.81199441168215 0  57.02083692524275 91.0690633672404 0  52.71487232786438 96.44682224262129 0  48.55872328070024 101.941187247437 0  44.55554591578033 107.5479860232332 0  40.7083801742321 113.2629608675606 0  37.02014754791168 119.0817718975441 0  33.49364883372994 125.000000381329 0  30.13156199866361 131.0131521097709 0  26.9364401549829 137.1166607985551 0  23.91070965524918 143.3058914868915 0  21.05666818346614 149.576144185037 0  18.37648306853811 155.9226573275967 0  15.8721895918909 162.3406114925245 0  13.54568948170046 168.8251329701392 0  11.39874945301878 175.3712974960928 0  9.432999857087736 181.9741340206533 0  7.649933466342702 188.6286284076045 0  6.050904301250966 195.3297273853278 0  4.637126656808988 202.0723421730917 0  3.409674127767772 208.8513525589684 0  2.369478824521138 215.6616106615248 0  1.517330660909465 222.4979448382452 0  0.8538767414496533 229.355163714981 0  0.3796208887135322 236.2280599646376 0  0.09492324266324204 243.1114144478261 0  0.0949232442452228 256.8885856095658 0  0.3796208935834784 263.7719401236316 0  0.8538767530323526 270.6448364248016 0  1.517330679476544 277.5020553295092 0  2.369478854618649 284.3383895555228 0  3.409674170191892 291.1486476952655 0  4.6371267162381 297.9276581311522 0  6.050904381420935 304.6702729724059 0  7.649933562385399 311.3713719716595 0  9.43299997979841 318.0258664133013 0  11.3987495994252 324.6287029719946 0  13.54568965885832 331.174867545904 0  15.87218979367188 337.6593890464085 0  18.37648329843151 344.0773432384132 0  21.05666844777872 350.423856417535 0  23.91070995156048 356.6941091410045 0  26.93644048988043 362.8833398632205 0  30.13156235982007 368.9868485575877 0  33.49364924138357 375.0000003247478 0  37.0201480006036 380.9182288389023 0  40.70838066758398 386.7370398875706 0  44.55554644477201 392.4520147396792 0  48.55872386086904 398.0588135419111 0  52.71487295981296 403.5531785693063 0  57.02083760525949 408.9309374584583 0  61.47334790862246 414.1880064170849 0  66.06902271205095 419.320393319588 0  70.80437211216579 424.3242006890749 0  75.67580013809859 429.195628692521 0  80.6796075127923 433.930978054209 0  85.81199439754931 438.5266528008431 0  91.06906334717917 442.9791630582355 0  96.44682221438322 447.2851276501571 0  101.9411872243843 451.441276702356 0  107.5479859945825 455.4444540643537 0  113.2629608446994 459.2916198108319 0  119.0817718768376 462.9798524393601 0  125.0000003647644 466.5063511567065 0  131.0131521012763 469.8684379967393 0  137.1166607840049 473.0635598376539 0  143.3058914748804 476.0892903390826 0  149.5761441732679 478.9433318113714 0  155.9226573130112 481.6235169255377 0  162.3406114779862 484.1278104026658 0  168.8251329570439 486.4543105138039 0  175.3712974805475 488.601250542119 0  181.9741340135204 490.5670001408953 0  188.6286284005059 492.3500665318597 0  195.3297273788229 493.9490956972913 0  202.0723421640089 495.3628733414168 0  208.8513525529672 496.5903258712308 0  215.6616106544547 497.6305211744985 0  222.4979448327038 498.4826693384772 0  229.3551637102845 499.1461232581612 0  236.2280599621369 499.6203791111485 0  243.1114144470173 499.9050767573145 0  155.2373389820306 474.8197567317462 0  25.36256300907667 153.9152755065208 0  432.3709625126712 412.6214396304305 0  6.013151705810699 246.637913163471 0  246.6379131630491 493.986848294322 0  338.6995838441862 22.68244767887072 0  477.3175523131281 338.6995838660569 0  493.9868482700757 246.6379131399102 0  246.6201155078769 6.218451882810491 0  417.6179310263282 72.7156044707053 0  102.2232990934413 445.0100869616822 0  63.66330858966404 92.20354579482142 0  391.3105220491464 50.73522820883105 0  72.79295043967942 418.0702734974704 0  448.290574428537 108.25674339002 0  402.4604651193511 440.7462829841712 0  97.55317348421397 59.11376320116034 0  136.7376477664901 33.58246472647134 0  363.3288394375288 465.6947312928271 0  44.0678766556007 381.0860953771871 0  469.6905266180034 142.3890690100806 0  22.68244791668644 338.6995843487432 0  338.699584349159 477.317552078365 0  173.389488083762 18.6681884918202 0  483.4809734778481 179.7121987795732 0  13.50237455842738 306.4709525540879 0  305.9825168523021 487.24416992
[...]
<PointData  Vectors="f_12"> 
<DataArray  type="Float64"  Name="f_12"  NumberOfComponents="3" format="ascii">4.8498980035793027e-01 2.0259228481710931e-01 4.0181576075094982e-01  4.8874357960596393e-01 2.9504446155206221e-01 3.6889826193423619e-01  4.8826065698746074e-01 1.7762938018085619e-01 4.3298222415322268e-01  4.8651102308330985e-01 2.5614986992631061e-01 3.8005793305918562e-01  4.8832922626827902e-01 1.7735698785267490e-01 4.3349249237767551e-01  4.8839268741534514e-01 1.7710906714724273e-01 4.3396230634114280e-01  4.8845325737395318e-01 1.7687602091996651e-01 4.3440862986056017e-01  4.8850911485043763e-01 1.7666407600622003e-01 4.3481848975596166e-01  4.8856092150544134e-01 1.7647010977594096e-01 4.3519710769325465e-01  4.8860851226998081e-01 1.7629402928304955e-01 4.3554368279303962e-01  4.8865184868632244e-01 1.7613542533997503e-01 4.3585826304124436e-01  4.8869103743311765e-01 1.7599342702707471e-01 4.3614190367188221e-01  4.8872582027424410e-01 1.7586852188450183e-01 4.3639299671396775e-01  4.8875596958245082e-01 1.7576111952519025e-01 4.3661014313603702e-01  4.8878000681970474e-01 1.7567610330722039e-01 4.3678291410162551e-01  4.8880266635825381e-01 1.7559636765038489e-01 4.3694554904704652e-01  4.8881633993416579e-01 1.7554861157019011e-01 4.3704349431231543e-01  4.8882792036197192e-01 1.7550829425509507e-01 4.3712638175009505e-01  4.8883411864105736e-01 1.7548690817729731e-01 4.3717065721343334e-01  4.8883575312841299e-01 1.7548148895895879e-01 4.3718224211787321e-01  4.8883302986058003e-01 1.7549128869191929e-01 4.3716262572172937e-01  4.8882386293529551e-01 1.7552371129764033e-01 4.3709681094736297e-01  4.8880957311575057e-01 1.7557419733584856e-01 4.3699422042725028e-01  4.8879203234114366e-01 1.7563630008590084e-01 4.3686819898053858e-01  4.8876927395127906e-01 1.7571716237377752e-01 4.3670450845690606e-01  4.8874041073858754e-01 1.7582031591448394e-01 4.3649654187914888e-01  4.8870527795768853e-01 1.7594672772904080e-01 4.3624288681176282e-01  4.8866698390438257e-01 1.7608565104878501e-01 4.3596573752342288e-01  4.8862367076057939e-01 1.7624429358741148e-01 4.3565137069441878e-01  4.8857339703933689e-01 1.7643043475456727e-01 4.3528529706697111e-01  4.8851938721302063e-01 1.7663289140669589e-01 4.3489056531403464e-01  4.8845970132243188e-01 1.7685974610004082e-01 4.3445251661823064e-01  4.8839479062598418e-01 1.7711012529580705e-01 4.3397397687929340e-01  4.8832566537276545e-01 1.7738114727156365e-01 4.3346179679684060e-01  4.8824964006464683e-01 1.7768465172852066e-01 4.3289531537132464e-01  4.8816904973970343e-01 1.7801268969793546e-01 4.3229114634154964e-01  4.8808484462067159e-01 1.7836262012387691e-01 4.3165568987821457e-01  4.8799418811280532e-01 1.7874797452337385e-01 4.3096653954565123e-01  4.8789713516768335e-01 1.7917080902930713e-01 4.3022279581150102e-01  4.8779646093417539e-01 1.7962097677261640e-01 4.2944459941364055e-01  4.8769230593242274e-01 1.8009980366965186e-01 4.2863191854187971e-01  4.8758219950641296e-01 1.8062125222489081e-01 4.2776398035122898e-01  4.8746651462533486e-01 1.8118660505989106e-01 4.2684196725076257e-01  4.8734720795529879e-01 1.8179008885727108e-01 4.2587934201527805e-01  4.8722309274268449e-01 1.8244109415112619e-01 4.2486457541829947e-01  4.8709498310430288e-01 1.8313936168728026e-01 4.2380203670620514e-01  4.8696331301549617e-01 1.8388718649917948e-01 4.2269268526356468e-01  4.8682859217693975e-01 1.8468662109414716e-01 4.2153804956681612e-01  4.8668891646605994e-01 1.8555596357155105e-01 4.2031778065544090e-01  4.8654730661477041e-01 1.8648193266497062e-01 4.1905519284056042e-01  4.8640331131964321e-01 1.8747679711955040e-01 4.1774102089514414e-01  4.8625754319115910e-01 1.8854243796365600e-01 4.1637736508280188e-01  4.8611065096975870e-01 1.8968588222223060e-01 4.1496373316978519e-01  4.8596233746510215e-01 1.9092007557153678e-01 4.1349124601147080e-01  4.8581449592792847e-01 1.9224299733213093e-01 4.1197099286838612e-01  4.8566820661950361e-01 1.9366019219457964e-01 4.1040559617246708e-01  4.8552336930542539e-01 1.9518866624834055e-01 4.0878489293269471e-01  4.8538190341202697e-01 1.9683037704272219e-01 4.0711800687521554e-01  4.8524505585002070e-01 1.9859042626466725e-01 4.0540841612316708e-01  4.8511419797424621e-01 2.0046027003047384e-01 4.0366872705894358e-01  4.8487528321999018e-01 2.0476849674956041e-01 3.9998870534049802e-01  4.8477296584976676e-01 2.0714521890264759e-01 3.9811361563254838e-01  4.8468481746293240e-01 2.0970698930157886e-01 3.9620912231266414e-01  4.8461227587162153e-01 2.1248955348902027e-01 3.9426202674225669e-01  4.8456018199133988e-01 2.1549185122250675e-01 3.9229935277417299e-01  4.8453023199267165e-01 2.1873076381926509e-01 3.9031930244503898e-01  4.8452816070623089e-01 2.2224312001531424e-01 3.8833212182378574e-01  4.8455701318167760e-01 2.2604489840256745e-01 3.8634373256970167e-01  4.8462202490418560e-01 2.3015603414785357e-01 3.8437017541903218e-01  4.8472861339428036e-01 2.3460356357206022e-01 3.8242401118939889e-01  4.8488344601715228e-01 2.3944650607503257e-01 3.8050509428094276e-01  4.8509225480845553e-01 2.4466672106557127e-01 3.7865304619110562e-01  4.8536276589524507e-01 2.5033307314438630e-01 3.7686637350576307e-01  4.8570420558594929e-01 2.5647862550108036e-01 3.7517190284113860e-01  4.8612478031070611e-01 2.6313031687676364e-01 3.7359263950356580e-01  4.8663416784008090e-01 2.7031430801214551e-01 3.7215935713033838e-01  4.8724177793345674e-01 2.7806144505060243e-01 3.7089560871269794e-01  4.8795933784599554e-01 2.8640433114014602e-01 3.6983480455483653e-01  4.8879850584952617e-01 2.9537435700337955e-01 3.6900739347566669e-01  4.8976867986349715e-01 3.0497109793476185e-01 3.6844707853735775e-01  4.9087390881036091e-01 3.1514575980480863e-01 3.6818507729142536e-01  4.9214196180390291e-01 3.2601480396939997e-01 3.6827281786740723e-01  4.9357204099055108e-01 3.3748279684799182e-01 3.6873511437209938e-01  4.9517210968905956e-01 3.4950912024340763e-01 3.6960469119326184e-01  4.9695357806940044e-01 3.6205779781967140e-01 3.7092194969816661e-01  4.9892071026609930e-01 3.7504144143742640e-01 3.7271760299813544e-01  5.0107823554286890e-01 3.8837017279022756e-01 3.7502062441555800e-01  5.0342802121026220e-01 4.0192598852707645e-01 3.7786207412310685e-01  5.0597253248240115e-01 4.1559982713856647e-01 3.8125859599264944e-01  5.0871130912294349e-01 4.2923440600300361e-01 3.8524972971599403e-01  5.1163617265333483e-01 4.4265800497522140e-01 3.8984105525639490e-01  5.1473589140871667e-01 4.5568474526520791e-01 3.9503906945749689e-01  5.1798200890898027e-01 4.6806703526092330e-01 4.0083424480134439e-01  5.2138717102744014e-01 4.7972988657913163e-01 4.0726928078064056e-01  5.2491105204239186e-01 4.9043153372198672e-01 4.1430540536297683e-01  5.2845068510510240e-01 4.9982106556231881e-01 4.2176284490350968e-01  5.3198579783542976e-01 5.0786967538224259e-01 4.2959546591905029e-01  5.3547201036085090e-01 5.1452854999710429e-01 4.3771468500204114e-01  5.3872625740910907e-01 5.1962460853347547e-01 4.4565888909864104e-01  5.4170000172118671e-01 5.2329997628090563e-01 4.5327005026092426e-01  5.4438539793881091e-01 5.2579677735152430e-01 4.6046198638480695e-01  5.4650134913261006e-01 5.2722129511119198e-01 4.6635223735451820e-01  5.4803336855897089e-01 5.2794897994868784e-01 4.7074537901456481e-01  5.4881215710056908e-01 5.2817292471734523e-01 4.7305694205855792e-01  5.4873649137547242e-01 5.2803603803939747e-01 4.7292387484181320e-01  5.4764523698957335e-01 5.2742555401034286e-01 4.6990766462347316e-01  5.4543508336248270e-01 5.2587191527532606e-01 4.6390534173367348e-01  5.4200255915482165e-01 5.2245792522774870e-01 4.5497204542167136e-01  5.3720533986426333e-01 5.1565503030573956e-01 4.4323866257664990e-01  5.3109358582227595e-01 5.0360896668463240e-01 4.2935760354938668e-01  5.2388951626409475e-01 4.8448722120694182e-01 4.1446363125043045e-01  5.1602720284087855e-01 4.5700653253806278e-01 4.0005024829778596e-01  5.0804559800654414e-01 4.2148326712664691e-01 3.8746022317543177e-01  5.0055069016245157e-01 3.7972984602168042e-01 3.7819676539926028e-01  4.9420955823442481e-01 3.3573102626892642e-01 3.7341463357062243e-01  4.8944878655544921e-01 2.9333525116304404e-01 3.7401872939667202e-01  4.8557046215651717e-01 2.2670109906068439e-01 3.9184423796607748e-01  4.8568576503489902e-01 2.0196211672457604e-01 4.0630431711273374e-01  4.8740898121978438e-01 1.8638462288468760e-01 4.2403272408106157e-01  4.8963830424343674e-01 1.7573465158669740e-01 4.4156535034722988e-01  4.9195138788568832e-01 1.6924115758131184e-01 4.5705730734670530e-01  4.9385775594579734e-01 1.6573749170506891e-01 4.6868971388522102e-01  4.9503441693581229e-01 1.6413005937827391e-01 4.7550987480829948e-01  4.9525014427623942e-01 1.6387305717945905e-01 4.7673527581318242e-01  4.9450199193899896e-01 1.6480346717575789e-01 4.7245635752548615e-01  4.9294230599811112e-01 1.6721359834978008e-01 4.6322366561121026e-01  4.9081527064621827e-01 1.7192432000903027e-01 4.4973500293558616e-01  4.8856411701054381e-01 1.7985881337011406e-01 4.3368060986475376e-01  4.8664202396188766e-01 1.9197364406373307e-01 4.1688562411971392e-01  4.8546436428568585e-01 2.0911389087713977e-01 4.0109086747779488e-01  4.8540227320844115e-01 2.3212725732947301e-01 3.8781545358411607e-01  4.8669158863121020e-01 2.6100343516865648e-01 3.7819621393523745e-01  4.8942779327713853e-01 2.9473352386368018e-01 3.7303696460234054e-01  4.9347898798302181e-01 3.3148992019267337e-01 3.7218550207707785e-01  4.9859451133100474e-01 3.6874621618903447e-01 3.7527938002141153e-01  5.0437907827996398e-01 4.0379040776667063e-01 3.8148364385606104e-01  5.1043137605768563e-01 4.3453797183650483e-01 3.8989249433426926e-01  5.1626735785195477e-01 4.5957137818156152e-01 3.9930833697070522e-01  5.2147735157977515e-01 4.7848583062074229e-01 4.0861233943963016e-01  5.2584822444132551e-01 4.9200401239214664e-01 4.1705365021556395e-01  5.2928397702399244e-01 5.0119148545546055e-01 4.2408288409869438e-01  5.3174211688963435e-01 5.0701448054479370e-01 4.2932177743670014e-01  5.3327678740027173e-01 5.1035336716815871e-01 4.3267065051164277e-01  5.3395726452832615e-01 5.1180066963917614e-01 4.3414467703807397e-01  5.3390284817119849e-01 5.1178080357068489e-01 4.3395275267019351e-01  5.3322282311258551e-01 5.1051681724244813e-01 4.3233608826012693e-01  5.3203258871501258e-01 5.0813229029047591e-01 4.2958721691016460e-01  5.3042277538050242e-01 5.0465480450064315e-01 4.2595713310585182e-01  5.2851066136831404e-01 5.0016534087384024e-01 4.2175175745934917e-01  5.2636816409486065e-01 4.9468648212288685e-01 4.1717410854665404e-01  5.2414932521760704e-01 4.8846385691621674e-01 4.1259068585012804e-01  5.2186012932964443e-01 4.8148483657347207e-01 4.0802394137457587e-01  5.1955655264189848e-01 4.7386939126195526e-01 4.0358907128077248e-01  5.1726829450696743e-01 4.6570447412035770e-01 3.9934861596398424e-01  5.1501514731985831e-01 4.5706576128743437e-01 3.9533337735307245e-01  5.1281839734547530e-01 4.4804595735585884e-01 3.9158384866868468e-01  5.1070938396687970e-01 4.3881188249103714e-01 3.8814619057065519e-01  5.0868457890739582e-01 4.2939529236317525e-01 3.8500157412035474e-01  5.0672529844231473e-01 4.1973887494253276e-01 3.8212060055808822e-01  5.0485910887337038e-01 4.1002483932019534e-01 3.7953075807844638e-01  5.0308499375008586e-01 4.0028691740322331e-01 3.7722818056091889e-01  5.0139524320500295e-01 3.9053058113276545e-01 3.7519196985826292e-01  4.9978496197403444e-01 3.8076061253887761e-01 3.7341297320894223e-01  4.9828243251524462e-01 3.7118115131266488e-01 3.7191876707660010e-01  4.9686010178477757e-01 3.6166863198238375e-01 3.7067349387921877e-01  4.9553366631263218e-01 3.5237600440510958e-01 3.6967083690509428e-01  4.9429423756954510e-01 3.4324802267104459e-01 3.6892369263938057e-01  4.9314760561024962e-01 3.3439892159205303e-01 3.6840026104471096e-01  4.9209614085587383e-01 3.2586890892709219e-01 3.6810765665320228e-01  4.9113259547428245e-01 3.1764984949714681e-01 3.6802402211371055e-01  4.9025442654439089e-01 3.0975845817536302e-01 3.6813919321449867e-01  4.8945979915485954e-01 3.0222692588351274e-01 3.6843399537865790e-01  4.8810216438794440e-01 2.8822152121411571e-01 3.6951442111840910e-01  4.8753243330496332e-01 2.8177114087592342e-01 3.7026520198020102e-01  4.8702750821979157e-01 2.7565713038646683e-01 3.7114237653555426e-01  4.8658383352362267e-01 2.6989068988589837e-01 3.7212448606345278e-01  4.8619665441485543e-01 2.6445459166542473e-01 3.7320131253987920e-01  4.8586114750672493e-01 2.5933279535232567e-01 3.7435974741099948e-01  4.8557323003945246e-01 2.5451301941330778e-01 3.7558820852303859e-01  4.8532853302929574e-01 2.4997872750058980e-01 3.7687518847624796e-01  4.8512323228628329e-01 2.4571348225019010e-01 3.7821187055070815e-01  4.8495366893544489e-01 2.4170260416779174e-01 3.7958859839967279e-01  4.8481676013410152e-01 2.3793260793692164e-01 3.8099818807974939e-01  4.8470882041537117e-01 2.3438787522108984e-01 3.8243054588006298e-01  4.8462723852711376e-01 2.3104587988351710e-01 3.8388570182547366e-01  4.8456928071059208e-01 2.2789360518173252e-01 3.8535699857638805e-01  4.8453282696333067e-01 2.2493671809559138e-01 3.8683047704639562e-01  4.8451567837315956e-01 2.2213295053321575e-01 3.8831879966237981e-01  4.8451582465912685e-01 2.1948801143278782e-01 3.8980832309047431e-01  4.8453129163544506e-01 2.1700907250655732e-01 3.9128459495748075e-01  4.8456089041395967e-01 2.1466349412725350e-01 3.9276029012467728e-01  4.8460254586302143e-01 2.1244493607560583e-01 3.9422762314490967e-01  4.8465547302597672e-01 2.1034708455881010e-01 3.9568643402125736e-01  4.8471812647311574e-01 2.0836510936388070e-01 3.9713117862065178e-01  4.8478954137565139e-01 2.0648656067439122e-01 3.9856379009027654e-01  4.8486880785806141e-01 2.0470650760207701e-01 3.9998230883267144e-01  4.8495457013320697e-01 2.0302508248650866e-01 4.0137945758344684e-01  4.8504627842074366e-01 2.0143208853323691e-01 4.0275809843393151e-01  4.8514349498353376e-01 1.9991474742959967e-01 4.0412309796671314e-01  4.8524450664045460e-01 1.9848567310276258e-01 4.0545828792712046e-01  4.8534979376360021e-01 1.9712402542960900e-01 4.0677796491068435e-01  4.8545823008353994e-01 1.9583159433983865e-01 4.0807509382943175e-01  4.8556921460998104e-01 1.9460569435474281e-01 4.0934805578315286e-01  4.8568233160117530e-01 1.9344177575793500e-01 4.1059719282679402e-01  4.8579708093731466e-01 1.9233654813606357e-01 4.1182171016906782e-01  4.8591323071963294e-01 1.9128526720788716e-01 4.1302304662734857e-01  4.8603070801036047e-01 1.9028251844711727e-01 4.1420385537931292e-01  4.8614788460192587e-01 1.8933568721539695e-01 4.1535140347847876e-01  4.8626482145513017e-01 1.8843866412427740e-01 4.1646946286559849e-01  4.8638292270459682e-01 1.8757651422581431e-01 4.1757378731129868e-01  4.8649985329483608e-01 1.8676182760890067e-01 4.1864503737488257e-01  4.8661544125893663e-01 1.8599171507671877e-01 4.1968395495073074e-01  4.8673043269872945e-01 1.8525722674496412e-01 4.2069947501146149e-01  4.8684399752828672e-01 1.8456027685617013e-01 4.2168615856590330e-01  4.8695645100212093e-01 1.8389640402025506e-01 4.2264821116161055e-01  4.8706633333121219e-01 1.8327063039565472e-01 4.2357511467905168e-01  4.8717480845476679e-01 1.8267428077570161e-01 4.2447791137676799e-01  4.8728084962238666e-01 1.8211024488238592e-01 4.2534958237531312e-01  4.8738485005306764e-01 1.8157430476934258e-01 4.2619455829489833e-01  4.8748687046381700e-01 1.8106414050455083e-01 4.2701447690979838e-01  4.8758529113801957e-01 1.8058617860171230e-01 4.2779731551126077e-01  4.8768059489404975e-01 1.8013580595472381e-01 4.2854816411425783e-01  4.8777397471092593e-01 1.7970580140430578e-01 4.2927733999385814e-01  4.8786359753265879e-01 1.7930323806917961e-01 4.2997130660336214e-01  4.8794959362670026e-01 1.7892598554570804e-01 4.3063197860194191e-01  4.8803247502872493e-01 1.7857034004580319e-01 4.3126410021372968e-01  4.8811217007447544e-01 1.7823544785008372e-01 4.3186781554442671e-01  4.8818766525148050e-01 1.7792446854332417e-01 4.3243606334221640e-01  4.8689258885430436e-01 1.8427062513090051e-01 4.2210345534729471e-01  5.0813507572289240e-01 4.2672927830087393e-01 3.8418761353872000e-01  4.8826985206592277e-01 1.7760319588688001e-01 4.3304634624776156e-01  4.8911292175579818e-01 2.9879310343170673e-01 3.6863667815771978e-01  4.8821119875169533e-01 1.7782872775053973e-01 4.3261249953916353e-01  5.4947235414694007e-01 5.2804910158694374e-01 4.7524027193674151e-01  4.8688264727485070e-01 1.8436198719342481e-01 4.2200353917797356e-01  4.8492486087783027e-01 2.0374780167313442e-01 4.0082380522001260e-01  4.8569109672877347e-01 2.4015231693101369e-01 3.8486607052178146e-01  5.0748961434414541e-01 4.2324970905541004e-01 3.8344876956076601e-01  4.8584493949928736e-01 1.9189657559192538e-01 4.1232055729928901e-01  5.3196214764022987e-01 5.0786796911695287e-01 4.2951214446493996e-01  5.2382818392860031e-01 4.8725152891873541e-01 4.1213858002469977e-01  4.8519193306398906e-01 1.9921401622843954e-01 4.0477207246338204e-01  4.9290460823804388e-01 3.3221344373905787e-01 3.6848507546939502e-01  4.8863355952685705e-01 1.7620781921763523e-01 4.3572326113588189e-01  5.2853781911236897e-01 4.9893036414591713e-01 4.2280003302087132e-01  4.9155498259786823e-01 3.1484497870942579e-01 3.7223933902764067e-01  4.8881303623201139e-01 1.7556145027437495e-01 4.3701930210952855e-01  4.8462929764229867e-01 2.1132974892696224e-01 3.9499584785134567e-01  4.8695773581583535e-01 2.7452099805859309e-01 3.7144305724939614e-01  4.8459724095506534e-01 2.2956019968582816e-01 3.8456527099183463e-01  4.8880875970557924e-01 1.7557537515293301e-01 4.3698906404561527e-01  4.8936370036108501e-01 1.7651781170728317e-01 4.3969886334076497e-01  4.8482296199445007e-01 2.3768254480435044e-01 3.8118313213384386e-01  4.8522996475467195e-01 2.4798590140964205e-01 3.7748641185832976e-01  4.8869027211957450e-01 1.7599631771939214e-01 4.3613630055515573e-01  4.8752674873909935e-01 1.8086868576241152e-01 4.2733270263020429e-01  4.9760619223378488e-01 3.6670277082156871e-01 3.7131142229453917e-01  5.3534687121789282e-01 5.1187309008970383e-01 4.3927270505196386e-01  4.8602529313809228e-01 1.9038572434625725e-01 4.1412220661267068e-01  4.8775047818791284e-01 1.7983085474153651e-01 4.2908667554790619e-01  4.9461747422044944e-01 1.6464929137363113e-01 4.7312530392485697e-01  4.8452590358725206e-01 2.2084543492376263e-01 3.8910680048547608e-01  4.8639617659657680e-01 2.6730429250141108e-01 3.7262029203178021e-01  4.8852167840197053e-01 1.7661693826810845e-01 4.3491036510260289e-01  5.3752134870959312e-01 5.1773164859688359e-01 4.4276223301300632e-01  5.1866926750858999e-01 4.7074165749728941e-01 4.0194862739465237e-01  4.8789645790137931e-01 1.7915809887721842e-01 4.3022432767477081e-01  4.8642995865536254e-01 1.8724346706949399e-01 4.1800774023149800e-01  4.9253837328095057e-01 3.2950201221732678e-01 3.6821152725667777e-01  5.0523766889362232e-01 4.0650552118730970e-01 3.8389949725371281e-01  4.8545885085223139e-01 1.9592072301780336e-01 4.0803409346156666e-01  4.8873455322385356e-01 1.7584109113013943e-01 4.3645436781044772e-01  4.8646205580440310e-01 1.8706435691468334e-01 4.1828088037883326e-01  4.8867551194286502e-01 1.7977169668063109e-01 4.3433259829773635e-01  5.4778749396312654e-01 5.2694550025622977e-01 4.7073654170114276e-01  4.8464124234604727e-01 2.1125748760976112e-01 3.9510765218535820e-01  5.0015814040850726e-01 3.8277394225049116e-01 3.7401236309558106e-01  4.8722031117887676e-01 1.8243038072112844e-01 4.2485301363262240e-01  4.8802101101108902e-01 1.7863267455097420e-01 4.3117116179271203e-01  4.8491114659084905e-01 2.0384977245011060e-01 4.0068705785254055e-01  5.1427303268664204e-01 4.5107865664522973e-01 3.9621932031530877e-01  4.8452216571879902e-01 2.1815882134463696e-01 3.9058971889729666e-01  5.0230400584338120e-01 3.9581926142046947e-01 3.7627701924351437e-01  4.8739343179231631e-01 1.8155383731390023e-01 4.2625368001655689e-01  4.8550699403