<?xml version="1.0"?>
<VTKFile type="UnstructuredGrid"  version="0.1"  >
<UnstructuredGrid>
<Piece  NumberOfPoints="4940" NumberOfCells="9650">
<Points>
<DataArray  type="Float64"  NumberOfComponents="3"  format="ascii">500 250 0  0 250 0  250 500 0  250 0 0  256.8885856082646 499.9050767557906 0  263.7719401218049 499.6203791065173 0  270.6448364229772 499.1461232471188 0  277.5020553257866 498.4826693209355 0  284.3383895508592 497.6305211460281 0  291.1486476865662 496.5903258312597 0  297.9276581259182 495.3628732847843 0  304.6702729675493 493.9490956196674 0  311.3713719748657 492.3500664368026 0  318.0258664141369 490.5670000199653 0  324.6287029687753 488.6012504015818 0  331.1748675330201 486.4543103455647 0  337.6593890460416 484.1278102064655 0  344.0773432429536 481.6235166997244 0  350.4238564271474 478.9433315480048 0  356.694109139292 476.0892900492477 0  362.88333985546 473.0635595140469 0  368.9868485575419 469.8684376402048 0  375.0000003153078 466.5063507640667 0  380.9182288257928 462.9798520074548 0  386.7370398729688 459.2916193419558 0  392.4520147244077 455.444453565817 0  398.0588135356345 451.4412761437442 0  403.5531785622926 447.285127045646 0  408.9309374414144 442.9791624087773 0  414.1880064015299 438.5266521049243 0  419.3203932989752 433.9309773069245 0  424.324200661095 429.1956279150535 0  429.1956286596235 424.3241998957182 0  433.9309780058756 419.3203925397119 0  438.5266527445345 414.1880056671062 0  442.9791630130591 408.9309367076756 0  447.2851276060475 403.5531778422888 0  451.4412766621026 398.0588128303826 0  455.4444540361634 392.4520140460735 0  459.2916197786263 386.7370392045948 0  462.9798524073514 380.9182281752347 0  466.5063511234856 374.9999996927758 0  469.8684379657123 368.9868479560565 0  473.0635598144817 362.8833392617846 0  476.0892903190255 356.6941085676214 0  478.9433317963513 350.4238558609745 0  481.6235169154735 344.0773427117675 0  484.12781039012 337.6593885555221 0  486.4543105028062 331.1748670749914 0  488.601250531677 324.6287025528375 0  490.5670001317469 318.0258660188321 0  492.3500665291326 311.3713716102628 0  493.949095695951 304.6702726271575 0  495.3628733416623 297.9276578347343 0  496.5903258712341 291.1486474470129 0  497.6305211749058 284.3383893426084 0  498.4826693388848 277.502055163614 0  499.1461232580606 270.6448362909296 0  499.6203791109319 263.7719400417897 0  499.9050767571306 256.8885855596534 0  499.9050767559877 243.1114143988867 0  499.6203791069493 236.2280598860241 0  499.1461232485393 229.3551635941651 0  498.4826693235677 222.4979446979962 0  497.6305211491849 215.6616104719064 0  496.5903258357701 208.8513523404629 0  495.3628732906988 202.0723419043604 0  493.9490956264813 195.3297270628552 0  492.3500664487791 188.6286280724281 0  490.5670000344809 181.9741336371959 0  488.6012504175981 175.3712970824318 0  486.4543103623226 168.8251325157939 0  484.1278102222298 162.3406109960628 0  481.6235167152198 155.9226567951971 0  478.9433315621651 149.5761436051346 0  476.0892900516498 143.3058908657982 0  473.063559513628 137.1166601437124 0  469.8684376406648 131.0131514433083 0  466.5063507675389 124.9999996907064 0  462.9798520124137 119.0817711822745 0  459.2916193464549 113.2629601339176 0  455.4444535642773 107.5479852733717 0  451.4412761528674 101.9411864767781 0  447.2851270583545 96.44682145403524 0  442.9791624165781 91.06906256805769 0  438.5266521117469 85.81199360630404 0  433.9309773156125 80.67960671046254 0  429.1956279150353 75.67579933888632 0  424.3241998888952 70.80437133373906 0  419.3203925223282 66.06902197812161 0  414.1880056411937 61.47334723289828 0  408.9309366751728 57.0208369601728 0  403.5531778009394 52.71487236176898 0  398.058812796452 48.55872331295853 0  392.4520140187753 44.55554594490843 0  386.7370391799677 40.70838020528396 0  380.9182281475119 37.02014757560744 0  374.9999996718656 33.49364886444181 0  368.9868479340393 30.13156202237255 0  362.8833392380029 26.93644017348339 0  356.6941085456942 23.91070967062674 0  350.4238558420009 21.0566681953261 0  344.0773426899492 18.37648307566465 0  337.6593885328982 15.87218960140942 0  331.1748670549786 13.54568949032341 0  324.6287025315056 11.39874946165088 0  318.0258660010876 9.432999863235466 0  311.3713716017894 7.649933468721599 0  304.6702726190621 6.050904302234756 0  297.9276578269805 4.637126656823085 0  291.148647441857 3.409674127905504 0  284.3383893425031 2.369478825079682 0  277.502055159398 1.517330660648639 0  270.6448362875833 0.853876741662134 0  263.7719400401456 0.3796208889774277 0  256.8885855592052 0.09492324285704967 0  243.1114143979462 0.09492324403817065 0  236.2280598850882 0.3796208931023841 0  229.3551635938215 0.8538767514891958 0  222.4979446968584 1.517330676558146 0  215.6616104703111 2.369478851036291 0  208.8513523382973 3.409674164591252 0  202.0723419066374 4.637126708856528 0  195.3297270659513 6.050904372824903 0  188.628628074828 7.649933550613184 0  181.9741336377093 9.432999965373938 0  175.3712970793675 11.39874958336037 0  168.8251325057572 13.54568964112298 0  162.340610986655 15.87218978129263 0  155.9226567874317 18.37648328793418 0  149.576143602509 21.05666843898663 0  143.3058908718157 23.91070994551046 0  137.1166601505524 26.93644048291054 0  131.0131514451933 30.13156235831508 0  124.9999996848412 33.49364923584736 0  119.0817711715717 37.0201479941652 0  113.2629601211624 40.70838066187849 0  107.5479852622251 44.55554644345162 0  101.9411864693332 48.55872385260452 0  96.44682143286516 52.71487295812284 0  91.06906254351222 57.02083760363669 0  85.81199358272519 61.4733479087879 0  80.67960667988106 66.06902271253972 0  75.67579930062769 70.80437212218331 0  70.80437129287643 75.67580015310926 0  66.06902193673014 80.67960752263491 0  61.47334718684866 85.81199441168215 0  57.02083692524275 91.0690633672404 0  52.71487232786438 96.44682224262129 0  48.55872328070024 101.941187247437 0  44.55554591578033 107.5479860232332 0  40.7083801742321 113.2629608675606 0  37.02014754791168 119.0817718975441 0  33.49364883372994 125.000000381329 0  30.13156199866361 131.0131521097709 0  26.9364401549829 137.1166607985551 0  23.91070965524918 143.3058914868915 0  21.05666818346614 149.576144185037 0  18.37648306853811 155.9226573275967 0  15.8721895918909 162.3406114925245 0  13.54568948170046 168.8251329701392 0  11.39874945301878 175.3712974960928 0  9.432999857087736 181.9741340206533 0  7.649933466342702 188.6286284076045 0  6.050904301250966 195.3297273853278 0  4.637126656808988 202.0723421730917 0  3.409674127767772 208.8513525589684 0  2.369478824521138 215.6616106615248 0  1.517330660909465 222.4979448382452 0  0.8538767414496533 229.355163714981 0  0.3796208887135322 236.2280599646376 0  0.09492324266324204 243.1114144478261 0  0.0949232442452228 256.8885856095658 0  0.3796208935834784 263.7719401236316 0  0.8538767530323526 270.6448364248016 0  1.517330679476544 277.5020553295092 0  2.369478854618649 284.3383895555228 0  3.409674170191892 291.1486476952655 0  4.6371267162381 297.9276581311522 0  6.050904381420935 304.6702729724059 0  7.649933562385399 311.3713719716595 0  9.43299997979841 318.0258664133013 0  11.3987495994252 324.6287029719946 0  13.54568965885832 331.174867545904 0  15.87218979367188 337.6593890464085 0  18.37648329843151 344.0773432384132 0  21.05666844777872 350.423856417535 0  23.91070995156048 356.6941091410045 0  26.93644048988043 362.8833398632205 0  30.13156235982007 368.9868485575877 0  33.49364924138357 375.0000003247478 0  37.0201480006036 380.9182288389023 0  40.70838066758398 386.7370398875706 0  44.55554644477201 392.4520147396792 0  48.55872386086904 398.0588135419111 0  52.71487295981296 403.5531785693063 0  57.02083760525949 408.9309374584583 0  61.47334790862246 414.1880064170849 0  66.06902271205095 419.320393319588 0  70.80437211216579 424.3242006890749 0  75.67580013809859 429.195628692521 0  80.6796075127923 433.930978054209 0  85.81199439754931 438.5266528008431 0  91.06906334717917 442.9791630582355 0  96.44682221438322 447.2851276501571 0  101.9411872243843 451.441276702356 0  107.5479859945825 455.4444540643537 0  113.2629608446994 459.2916198108319 0  119.0817718768376 462.9798524393601 0  125.0000003647644 466.5063511567065 0  131.0131521012763 469.8684379967393 0  137.1166607840049 473.0635598376539 0  143.3058914748804 476.0892903390826 0  149.5761441732679 478.9433318113714 0  155.9226573130112 481.6235169255377 0  162.3406114779862 484.1278104026658 0  168.8251329570439 486.4543105138039 0  175.3712974805475 488.601250542119 0  181.9741340135204 490.5670001408953 0  188.6286284005059 492.3500665318597 0  195.3297273788229 493.9490956972913 0  202.0723421640089 495.3628733414168 0  208.8513525529672 496.5903258712308 0  215.6616106544547 497.6305211744985 0  222.4979448327038 498.4826693384772 0  229.3551637102845 499.1461232581612 0  236.2280599621369 499.6203791111485 0  243.1114144470173 499.9050767573145 0  155.2373389820306 474.8197567317462 0  25.36256300907667 153.9152755065208 0  432.3709625126712 412.6214396304305 0  6.013151705810699 246.637913163471 0  246.6379131630491 493.986848294322 0  338.6995838441862 22.68244767887072 0  477.3175523131281 338.6995838660569 0  493.9868482700757 246.6379131399102 0  246.6201155078769 6.218451882810491 0  417.6179310263282 72.7156044707053 0  102.2232990934413 445.0100869616822 0  63.66330858966404 92.20354579482142 0  391.3105220491464 50.73522820883105 0  72.79295043967942 418.0702734974704 0  448.290574428537 108.25674339002 0  402.4604651193511 440.7462829841712 0  97.55317348421397 59.11376320116034 0  136.7376477664901 33.58246472647134 0  363.3288394375288 465.6947312928271 0  44.0678766556007 381.0860953771871 0  469.6905266180034 142.3890690100806 0  22.68244791668644 338.6995843487432 0  338.699584349159 477.317552078365 0  173.389488083762 18.6681884918202 0  483.4809734778481 179.7121987795732 0  13.50237455842738 306.4709525540879 0  305.9825168523021 487.24416992
[...]
<PointData  Vectors="f_12"> 
<DataArray  type="Float64"  Name="f_12"  NumberOfComponents="3" format="ascii">5.2788105754549342e-01 1.8723390349771515e-01 6.1376313498350477e-01  5.0256110407558607e-01 1.6062298304381462e-01 5.1463602970927524e-01  5.4074494852358501e-01 2.1554278310746514e-01 6.4841600198636185e-01  5.3253357151551173e-01 1.9932128423635712e-01 6.2669219964503331e-01  5.4093732104587899e-01 2.1604443935010759e-01 6.4884868409244467e-01  5.4111369281235377e-01 2.1650659620102045e-01 6.4924295124098064e-01  5.4128130172631050e-01 2.1694772158121514e-01 6.4961555335551102e-01  5.4143481199677279e-01 2.1735336953358406e-01 6.4995503578387070e-01  5.4157655973755514e-01 2.1772938375128342e-01 6.5026697848305959e-01  5.4170632790126005e-01 2.1807481004365203e-01 6.5055124797886399e-01  5.4182423586117401e-01 2.1838965909844718e-01 6.5080848014089154e-01  5.4193082647734570e-01 2.1867512121337618e-01 6.5104013350090495e-01  5.4202553052415836e-01 2.1892942520015968e-01 6.5124522452943012e-01  5.4210787527972115e-01 2.1915106318053526e-01 6.5142302428311738e-01  5.4217364939462998e-01 2.1932848014469847e-01 6.5156464714846407e-01  5.4223689623522420e-01 2.1949934372194732e-01 6.5170053471509026e-01  5.4227551126608287e-01 2.1960389869331479e-01 6.5178330331566792e-01  5.4230969705094312e-01 2.1969655169000854e-01 6.5185648553091069e-01  5.4232989771432460e-01 2.1975143232286015e-01 6.5189963945534979e-01  5.4233857645374717e-01 2.1977513513821170e-01 6.5191811025880764e-01  5.4233638697811781e-01 2.1976940839350548e-01 6.5191329163383660e-01  5.4231724190752817e-01 2.1971781513315311e-01 6.5187217954684618e-01  5.4228492106195481e-01 2.1963061071812065e-01 6.5180281349467328e-01  5.4224493313689515e-01 2.1952275523824336e-01 6.5171688037616915e-01  5.4219142394653574e-01 2.1937852414095138e-01 6.5160176856884522e-01  5.4212173058366098e-01 2.1919093542030851e-01 6.5145153226188579e-01  5.4203513245316182e-01 2.1895823856234442e-01 6.5126440215482473e-01  5.4194073447514102e-01 2.1870512823137822e-01 6.5105980161826493e-01  5.4183290505339432e-01 2.1841673020716001e-01 6.5082528839940601e-01  5.4170551698556568e-01 2.1807699262574784e-01 6.5054717678677043e-01  5.4156801303659863e-01 2.1771148446613556e-01 6.5024567745653961e-01  5.4141430561124926e-01 2.1730443093609578e-01 6.4990697480688497e-01  5.4124533327457025e-01 2.1685871474128243e-01 6.4953274724247623e-01  5.4106388235400293e-01 2.1638219174029816e-01 6.4912855502501876e-01  5.4086119961384582e-01 2.1585251248845552e-01 6.4867422359199767e-01  5.4064395080258709e-01 2.1528773799485673e-01 6.4818406258545913e-01  5.4041479412221782e-01 2.1469535222070368e-01 6.4766332533128668e-01  5.4016400454948155e-01 2.1405102576470683e-01 6.4708911570485206e-01  5.3989081081605372e-01 2.1335383354334203e-01 6.4645856465869067e-01  5.3960354601809291e-01 2.1262590806645540e-01 6.4578986034217223e-01  5.3930211870010758e-01 2.1186783174943749e-01 6.4508190665516307e-01  5.3897712512478646e-01 2.1105706040643990e-01 6.4431144485908565e-01  5.3862851797390454e-01 2.1019476196917397e-01 6.4347686886294142e-01  5.3826190968156817e-01 2.0929636804410956e-01 6.4259008379216032e-01  5.3787172845507936e-01 2.0834956203454491e-01 6.4163601703006379e-01  5.3745932723141698e-01 2.0735912074065663e-01 6.4061627797759557e-01  5.3702466611138100e-01 2.0632670019119492e-01 6.3952885676876348e-01  5.3656778402674765e-01 2.0525408270171558e-01 6.3837222650234837e-01  5.3607866856433584e-01 2.0412026883084750e-01 6.3711787396989661e-01  5.3556708034116851e-01 2.0294963372492550e-01 6.3578909897299707e-01  5.3502816511125340e-01 2.0173406142545303e-01 6.3437009791382382e-01  5.3446169552395395e-01 2.0047478441465927e-01 6.3285797279213463e-01  5.3386675070613709e-01 1.9917314075249140e-01 6.3124694551627925e-01  5.3323745143360002e-01 1.9781912758042880e-01 6.2951763810658867e-01  5.3257810836018060e-01 1.9642554927378872e-01 6.2767799562959958e-01  5.3188858199349121e-01 1.9499562456475317e-01 6.2572404078576893e-01  5.3116238219797751e-01 1.9351948756265328e-01 6.2363281599729470e-01  5.3040205544242669e-01 1.9200667736879357e-01 6.2140750834344161e-01  5.2960848851403153e-01 1.9046275437480162e-01 6.1904473826827111e-01  5.2878660151274726e-01 1.8889821429658810e-01 6.1656190337597994e-01  5.2697974321011387e-01 1.8560859480042158e-01 6.1093560042796602e-01  5.2602805596414470e-01 1.8394814736956755e-01 6.0789333492770159e-01  5.2503620576086241e-01 1.8227298681516063e-01 6.0466291510356518e-01  5.2399385127132536e-01 1.8057171642884784e-01 6.0120058660853792e-01  5.2290921012173852e-01 1.7886834388164513e-01 5.9752804223826750e-01  5.2178124217179900e-01 1.7716597472001133e-01 5.9363109710961504e-01  5.2060591603213691e-01 1.7547237016105299e-01 5.8948666573532615e-01  5.1938390562484538e-01 1.7379549756163520e-01 5.8508674913467607e-01  5.1811746009838899e-01 1.7215017984185449e-01 5.8042916695953728e-01  5.1680679721994660e-01 1.7054847378251331e-01 5.7550388891774107e-01  5.1544308926889948e-01 1.6899257633921608e-01 5.7026353289423193e-01  5.1404209394989886e-01 1.6751552413386936e-01 5.6475783808708457e-01  5.1259422744357486e-01 1.6611984590194859e-01 5.5893589877606820e-01  5.1110200135573836e-01 1.6482786715761477e-01 5.5279184152401206e-01  5.0957034098688148e-01 1.6366198074347238e-01 5.4633057907440064e-01  5.0800486687934832e-01 1.6264839451515986e-01 5.3956046990159268e-01  5.0640994438140030e-01 1.6181068204145868e-01 5.3248398835246258e-01  5.0479082984323498e-01 1.6117855777243106e-01 5.2510741831376495e-01  5.0315302274772145e-01 1.6078163793952768e-01 5.1743782931298110e-01  5.0150823722608084e-01 1.6065253567905974e-01 5.0951191039081323e-01  4.9987444377136497e-01 1.6082086332851969e-01 5.0140184911913854e-01  4.9824721269614253e-01 1.6133757878137572e-01 4.9305898334221099e-01  4.9664988838721741e-01 1.6222748165961320e-01 4.8458853167731347e-01  4.9509705245196606e-01 1.6352305225679170e-01 4.7605020211745519e-01  4.9360325778646402e-01 1.6526224175942075e-01 4.6750245528784712e-01  4.9218576720565993e-01 1.6747079180419897e-01 4.5902705700242891e-01  4.9085932980702207e-01 1.7017057651740744e-01 4.5069665245108492e-01  4.8963918219085528e-01 1.7337569106894382e-01 4.4259242686004391e-01  4.8853516590899992e-01 1.7709275261548918e-01 4.3477073261073007e-01  4.8756015251076401e-01 1.8132540307766576e-01 4.2730785478651573e-01  4.8672098245539347e-01 1.8605538287232548e-01 4.2025836279128387e-01  4.8602246398458770e-01 1.9125874485262306e-01 4.1366865202053771e-01  4.8546935375895955e-01 1.9688230119456723e-01 4.0760096648498545e-01  4.8505508543354742e-01 2.0293616572618670e-01 4.0201869425741432e-01  4.8477803407420156e-01 2.0934920346346486e-01 3.9695628742187511e-01  4.8463441094304660e-01 2.1594928557164944e-01 3.9249201483686841e-01  4.8460903048297693e-01 2.2269076731972046e-01 3.8856988906951856e-01  4.8468822877682061e-01 2.2947952809509298e-01 3.8516994278216343e-01  4.8484549207666550e-01 2.3591738943110427e-01 3.8237448333002960e-01  4.8505492023568941e-01 2.4183953579092449e-01 3.8014032877707393e-01  4.8529185741119502e-01 2.4714584532029893e-01 3.7839483449777656e-01  4.8549043503681655e-01 2.5097041300052447e-01 3.7728269269267301e-01  4.8561570347268312e-01 2.5308812011252052e-01 3.7675247679040869e-01  4.8562172708333823e-01 2.5284597568304218e-01 3.7693780379284775e-01  4.8549546677491945e-01 2.4985371457417058e-01 3.7799283620301877e-01  4.8525851107851414e-01 2.4371599261204324e-01 3.8025133326970573e-01  4.8501031291485958e-01 2.3452091344220455e-01 3.8417940744655410e-01  4.8492629988215397e-01 2.2270489711524311e-01 3.9044841856695528e-01  4.8527591764007194e-01 2.0895022019737020e-01 4.0009903574428068e-01  4.8639703988933386e-01 1.9464776876350484e-01 4.1411347138280730e-01  4.8865288208518076e-01 1.8143421414571942e-01 4.3342938419628374e-01  4.9239300540126879e-01 1.7114113545850704e-01 4.5863929566527617e-01  4.9780579628000537e-01 1.6512416672787619e-01 4.8948735396821824e-01  5.0495516371319837e-01 1.6459117726316397e-01 5.2488928893060560e-01  5.1352024998669843e-01 1.7022299427149185e-01 5.6185368343195730e-01  5.2299490526575132e-01 1.8212297126226926e-01 5.9707689888506532e-01  5.4113701586926621e-01 2.1981270157138533e-01 6.4819109304551659e-01  5.4914832124094326e-01 2.4197776382505323e-01 6.6419830194063922e-01  5.5505761718062263e-01 2.6263831066976184e-01 6.7153125294517935e-01  5.5947764447966275e-01 2.8008591938684541e-01 6.7516311638037496e-01  5.6257545113780894e-01 2.9371977489680340e-01 6.7628884465132066e-01  5.6450001889394574e-01 3.0293600366183354e-01 6.7630599630047761e-01  5.6549144079511582e-01 3.0794425056063579e-01 6.7607677222153950e-01  5.6563657845957038e-01 3.0869098623186747e-01 6.7603184610543143e-01  5.6498637109878613e-01 3.0535713713224755e-01 6.7622218718949179e-01  5.6351850503359702e-01 2.9811827165781118e-01 6.7638899163319999e-01  5.6104097503413908e-01 2.8671797502402502e-01 6.7592585567844088e-01  5.5743463559107598e-01 2.7167149407158386e-01 6.7378832604822048e-01  5.5258258574492258e-01 2.5368544189475117e-01 6.6870999429883515e-01  5.4646076743332728e-01 2.3397762020899970e-01 6.5917693631555585e-01  5.3907687982806096e-01 2.1388738053808840e-01 6.4373446819009517e-01  5.3079052521365822e-01 1.9540978797587177e-01 6.2181725563632362e-01  5.2217786418913170e-01 1.8041451247698798e-01 5.9434940837514638e-01  5.1386457547679265e-01 1.6996240453725128e-01 5.6337080204312151e-01  5.0637748935096338e-01 1.6439364071581361e-01 5.3159230125922141e-01  5.0006628470663361e-01 1.6337371789513119e-01 5.0152017078275335e-01  4.9506045978140412e-01 1.6622754072990717e-01 4.7484463700445440e-01  4.9133107511762802e-01 1.7188092368946550e-01 4.5257042787487889e-01  4.8873725563082743e-01 1.7918504817780517e-01 4.3497237239395292e-01  4.8703507204268753e-01 1.8709947692819481e-01 4.2157907145486234e-01  4.8597796727848325e-01 1.9474893770320270e-01 4.1168478624413457e-01  4.8536374767035945e-01 2.0142875985225284e-01 4.0465986989697739e-01  4.8502615394606230e-01 2.0674313342345316e-01 3.9986282105609744e-01  4.8485064912913584e-01 2.1048792141769113e-01 3.9680709010085485e-01  4.8476279681059209e-01 2.1271556081461285e-01 3.9507045940922175e-01  4.8472203172616840e-01 2.1356374447541268e-01 3.9436082256205368e-01  4.8471020952494653e-01 2.1325249581814723e-01 3.9445794638731918e-01  4.8472334605928635e-01 2.1197601911609537e-01 3.9523093854719132e-01  4.8476381172704069e-01 2.0999179130455167e-01 3.9654705593785405e-01  4.8483792055862707e-01 2.0745711164520228e-01 3.9835094031754448e-01  4.8494965587564087e-01 2.0467816363042082e-01 4.0049175975336226e-01  4.8510620338299376e-01 2.0165318639740079e-01 4.0300838597719224e-01  4.8531298706238407e-01 1.9848787587385477e-01 4.0586908906244407e-01  4.8557615150373451e-01 1.9523985206155822e-01 4.0907363161190119e-01  4.8590140000301912e-01 1.9195565782814414e-01 4.1262468752155618e-01  4.8629430716401950e-01 1.8868665975443943e-01 4.1652179692587127e-01  4.8675423961602243e-01 1.8550555463523619e-01 4.2071921957554514e-01  4.8728515679386303e-01 1.8243185305788118e-01 4.2522431093875773e-01  4.8789740371386592e-01 1.7946290512452942e-01 4.3009024166342197e-01  4.8858251924270735e-01 1.7666764235764504e-01 4.3523034716548692e-01  4.8934157253895222e-01 1.7406685344973127e-01 4.4063508818761876e-01  4.9017481267761559e-01 1.7166878085145901e-01 4.4629666545151148e-01  4.9108329526112671e-01 1.6948250078487659e-01 4.5221090913431788e-01  4.9204842554989009e-01 1.6755883001330829e-01 4.5824851535225153e-01  4.9307968631360022e-01 1.6586511518026104e-01 4.6447250616518687e-01  4.9415729204018333e-01 1.6441956020353379e-01 4.7076506400518953e-01  4.9528927157806069e-01 1.6321793941656368e-01 4.7716773165151560e-01  4.9645425316275338e-01 1.6225245140204542e-01 4.8357007136429658e-01  4.9764522797004762e-01 1.6152141466828793e-01 4.8993656527981094e-01  4.9885846750586288e-01 1.6100664214650681e-01 4.9625541569229037e-01  5.0008773084538694e-01 1.6069554810730483e-01 5.0250097563701235e-01  5.0132290432800730e-01 1.6057229903777415e-01 5.0862988278212984e-01  5.0379562021570090e-01 1.6083177469053961e-01 5.2049487261809246e-01  5.0501915258853025e-01 1.6118301280545203e-01 5.2618003476927055e-01  5.0623369459393552e-01 1.6166492111748942e-01 5.3170958689878500e-01  5.0743148774743441e-01 1.6226080801863721e-01 5.3705519499563259e-01  5.0861089470901877e-01 1.6295901597930576e-01 5.4221822207184545e-01  5.0977025249548369e-01 1.6374775513518902e-01 5.4719872597661090e-01  5.1090739732742496e-01 1.6461608187468418e-01 5.5199471260667399e-01  5.1202105180917024e-01 1.6555360459792290e-01 5.5660766998440458e-01  5.1311049793687780e-01 1.6655168699288353e-01 5.6104147442757768e-01  5.1417476594372524e-01 1.6760167806526505e-01 5.6529832886173759e-01  5.1521297753918349e-01 1.6869614372000050e-01 5.6938110071245673e-01  5.1622432219858383e-01 1.6982624133536930e-01 5.7329226228393382e-01  5.1721233619410767e-01 1.7099123282332113e-01 5.7705084178052768e-01  5.1817617716404518e-01 1.7218419238549720e-01 5.8065887427618057e-01  5.1911015484594991e-01 1.7339273127237934e-01 5.8409985333564496e-01  5.2002550474995513e-01 1.7462752013451807e-01 5.8741943393199403e-01  5.2091587422127550e-01 1.7587515504600254e-01 5.9059904861435208e-01  5.2177527042398053e-01 1.7712270493717269e-01 5.9362078065987200e-01  5.2261296376465494e-01 1.7838021461330633e-01 5.9652293459951777e-01  5.2342779531896499e-01 1.7964112994688586e-01 5.9930388695739678e-01  5.2422000246472211e-01 1.8090378779280417e-01 6.0196836373130724e-01  5.2498875114166177e-01 1.8216316787896941e-01 6.0451673795623051e-01  5.2573662790167497e-01 1.8342044314863773e-01 6.0696066941543714e-01  5.2646368671110344e-01 1.8467332905050765e-01 6.0930323503288530e-01  5.2716708403754409e-01 1.8591390736528488e-01 6.1153819252855413e-01  5.2784994836577381e-01 1.8714537987553298e-01 6.1367813026681484e-01  5.2851563086533160e-01 1.8837114787309484e-01 6.1573645557815193e-01  5.2915663940551527e-01 1.8957557049614274e-01 6.1769177330350222e-01  5.2978141241254517e-01 1.9077226722560181e-01 6.1957270196089098e-01  5.3038723321096237e-01 1.9195394749544334e-01 6.2137277461409046e-01  5.3097382190190034e-01 1.9311826524848461e-01 6.2309352824388153e-01  5.3154224820243201e-01 1.9426559934959489e-01 6.2473991002212881e-01  5.3209278913798874e-01 1.9539473813705141e-01 6.2631467894531034e-01  5.3262680198249512e-01 1.9650695076087479e-01 6.2782341846360612e-01  5.3314609133915014e-01 1.9760458224741198e-01 6.2927281440702831e-01  5.3364494509974181e-01 1.9867392083518479e-01 6.3064862459940241e-01  5.3412599731003907e-01 1.9971913072048733e-01 6.3195988862928043e-01  5.3459708516178794e-01 2.0075611208271285e-01 6.3322917702874493e-01  5.3504945155156924e-01 2.0176433777476080e-01 6.3443424487092515e-01  5.3548396561222744e-01 2.0274449284818061e-01 6.3557892347297140e-01  5.3590524285920293e-01 2.0370570956481795e-01 6.3667669421152107e-01  5.3631113883026027e-01 2.0464201718651082e-01 6.3772304836413052e-01  5.3670390029794468e-01 2.0555772786898910e-01 6.3872505437795313e-01  5.3707914288352798e-01 2.0644137194221229e-01 6.3967246977925329e-01  5.3744219804142879e-01 2.0730472700955291e-01 6.4058008805754107e-01  5.3779018780226429e-01 2.0813995128233148e-01 6.4144153915449975e-01  5.3812542890965143e-01 2.0895175959001147e-01 6.4226346965925740e-01  5.3844888217303954e-01 2.0974167938280291e-01 6.4304916710041138e-01  5.3875544867641312e-01 2.1049656386379506e-01 6.4378728176526478e-01  5.3904780906313898e-01 2.1122208768651379e-01 6.4448493841642962e-01  5.3933056974742921e-01 2.1192895019865496e-01 6.4515406339914871e-01  5.3959812976979971e-01 2.1260257620283757e-01 6.4578199716938645e-01  5.3985150622678479e-01 2.1324479602315327e-01 6.4637204886902211e-01  5.4009304898033050e-01 2.1386091570725216e-01 6.4693020056326989e-01  5.4032285999539142e-01 2.1445060183850451e-01 6.4745751547668395e-01  5.4053824764937963e-01 2.1500646446685745e-01 6.4794820445513834e-01  5.3647724867738922e-01 2.0502821165462087e-01 6.3814813139576321e-01  4.8744862089411806e-01 1.8159581388690324e-01 4.2654937154904710e-01  5.4090940367640294e-01 2.1597808093298035e-01 6.4878278438512738e-01  5.0190295360119630e-01 1.6057758081590331e-01 5.1145914958591410e-01  5.4060090562503493e-01 2.1516870761683582e-01 6.4809046638216250e-01  4.8583502404970852e-01 2.5631625997440893e-01 3.7608826355397179e-01  5.3674457102488049e-01 2.0566774053157927e-01 6.3882150796713655e-01  5.2738862524073771e-01 1.8633565723677945e-01 6.1222929300936935e-01  5.3693301787595027e-01 2.0884417190349408e-01 6.3873892176197078e-01  4.8798595477554330e-01 1.7937035776087179e-01 4.3063030293755106e-01  5.3231121947533855e-01 1.9584786922345981e-01 6.2693392504774659e-01  4.8469838826495959e-01 2.1421527949318012e-01 3.9385291226860802e-01  4.8485512360567790e-01 2.0727996929638751e-01 3.9852738796946907e-01  5.2882325934816343e-01 1.8894639804271887e-01 6.1667813017982831e-01  4.9737033414801107e-01 1.6177884485233984e-01 4.8844460291698333e-01  5.4185085407955758e-01 2.1846455893928501e-01 6.5086454052005815e-01  4.8630534555098925e-01 1.9262919888250415e-01 4.1463970175498610e-01  5.1746034528953300e-01 1.7408994989810112e-01 5.7728668355021617e-01  5.4228214222954596e-01 2.1962265679389489e-01 6.5179720515247141e-01  5.2384142611708862e-01 1.8029663640042265e-01 6.0069945826120630e-01  5.0712353804190746e-01 1.6216282611537661e-01 5.3567154721968457e-01  5.1765619590106227e-01 1.7153269929148895e-01 5.7872133134814585e-01  5.4225350064246514e-01 2.1954447059333637e-01 6.5173611208122739e-01  5.5882975661167378e-01 2.7727698689473373e-01 6.7484910401497933e-01  5.1592490945476466e-01 1.6953010239587524e-01 5.7212868481500090e-01  5.1251742647105880e-01 1.6599984786873817e-01 5.5863690925087783e-01  5.4192514350608878e-01 2.1865993716777651e-01 6.5102785371159866e-01  5.3856891480963720e-01 2.1003642401750036e-01 6.4333919744581447e-01  4.9252537401278773e-01 1.6674074079539300e-01 4.6114996825234472e-01  4.8564389325422369e-01 2.0413503338312972e-01 4.0480440768382903e-01  5.3350006149405593e-01 1.9838127744258138e-01 6.3024272820460892e-01  5.3946477690904204e-01 2.1227621780284225e-01 6.4546479103751841e-01  5.6513258853795589e-01 3.0609559699086880e-01 6.7618856317515297e-01  5.2106028629039625e-01 1.7611871193671400e-01 5.9109851397805957e-01  5.0798079743059543e-01 1.6257382501213966e-01 5.3947175330039510e-01  5.4146536458712802e-01 2.1743434847519730e-01 6.5002244024251110e-01  4.8479054216043349e-01 2.3361683808205821e-01 3.8338296524595084e-01  4.8540477389371478e-01 1.9731636642661207e-01 4.0700913761116214e-01  5.3969098454297415e-01 2.1283743587982887e-01 6.4599887564543679e-01  5.3477592538740948e-01 2.0115290840567240e-01 6.3370774952231790e-01  4.9712626966232049e-01 1.6181317775485318e-01 4.8718246899812701e-01  5.0029589134583430e-01 1.6445682035687315e-01 5.0228623452314269e-01  5.3081286646028614e-01 1.9282061478756618e-01 6.2261405431134886e-01  5.4209684468541985e-01 2.1912377184681739e-01 6.5139805430148690e-01  5.3524104374063164e-01 2.0221211696364455e-01 6.3493318142138377e-01  5.5770611681205395e-01 2.7290200346646082e-01 6.7394401992744191e-01  4.8529885127985584e-01 2.4298367879262067e-01 3.8090972861497591e-01  5.2443940705565362e-01 1.8129067835902105e-01 6.0269037926980751e-01  4.9140998037646594e-01 1.6897653058515832e-01 4.5420191202400317e-01  5.3758728329415162e-01 2.0765216611173867e-01 6.4094018528548646e-01  5.4023030169809672e-01 2.1422072092840055e-01 6.4724170891038824e-01  5.2681367525577372e-01 1.8528707632217431e-01 6.1041943945482902e-01  4.9261393178821355e-01 1.6980151966094395e-01 4.6038010948771541e-01  5.2136799520872401e-01 1.7652601566291251e-01 5.9219519233549245e-01  4.8971694844030578e-01 1.7294801305705906e-01 4.4320952327787372e-01  5.3839750802699593e-01 2.0962763657403222e-01 6.4291928631590878e-01  5.3064346233