<?xml version="1.0"?>
<VTKFile type="UnstructuredGrid"  version="0.1"  >
<UnstructuredGrid>
<Piece  NumberOfPoints="4940" NumberOfCells="9650">
<Points>
<DataArray  type="Float64"  NumberOfComponents="3"  format="ascii">500 250 0  0 250 0  250 500 0  250 0 0  256.8885856082646 499.9050767557906 0  263.7719401218049 499.6203791065173 0  270.6448364229772 499.1461232471188 0  277.5020553257866 498.4826693209355 0  284.3383895508592 497.6305211460281 0  291.1486476865662 496.5903258312597 0  297.9276581259182 495.3628732847843 0  304.6702729675493 493.9490956196674 0  311.3713719748657 492.3500664368026 0  318.0258664141369 490.5670000199653 0  324.6287029687753 488.6012504015818 0  331.1748675330201 486.4543103455647 0  337.6593890460416 484.1278102064655 0  344.0773432429536 481.6235166997244 0  350.4238564271474 478.9433315480048 0  356.694109139292 476.0892900492477 0  362.88333985546 473.0635595140469 0  368.9868485575419 469.8684376402048 0  375.0000003153078 466.5063507640667 0  380.9182288257928 462.9798520074548 0  386.7370398729688 459.2916193419558 0  392.4520147244077 455.444453565817 0  398.0588135356345 451.4412761437442 0  403.5531785622926 447.285127045646 0  408.9309374414144 442.9791624087773 0  414.1880064015299 438.5266521049243 0  419.3203932989752 433.9309773069245 0  424.324200661095 429.1956279150535 0  429.1956286596235 424.3241998957182 0  433.9309780058756 419.3203925397119 0  438.5266527445345 414.1880056671062 0  442.9791630130591 408.9309367076756 0  447.2851276060475 403.5531778422888 0  451.4412766621026 398.0588128303826 0  455.4444540361634 392.4520140460735 0  459.2916197786263 386.7370392045948 0  462.9798524073514 380.9182281752347 0  466.5063511234856 374.9999996927758 0  469.8684379657123 368.9868479560565 0  473.0635598144817 362.8833392617846 0  476.0892903190255 356.6941085676214 0  478.9433317963513 350.4238558609745 0  481.6235169154735 344.0773427117675 0  484.12781039012 337.6593885555221 0  486.4543105028062 331.1748670749914 0  488.601250531677 324.6287025528375 0  490.5670001317469 318.0258660188321 0  492.3500665291326 311.3713716102628 0  493.949095695951 304.6702726271575 0  495.3628733416623 297.9276578347343 0  496.5903258712341 291.1486474470129 0  497.6305211749058 284.3383893426084 0  498.4826693388848 277.502055163614 0  499.1461232580606 270.6448362909296 0  499.6203791109319 263.7719400417897 0  499.9050767571306 256.8885855596534 0  499.9050767559877 243.1114143988867 0  499.6203791069493 236.2280598860241 0  499.1461232485393 229.3551635941651 0  498.4826693235677 222.4979446979962 0  497.6305211491849 215.6616104719064 0  496.5903258357701 208.8513523404629 0  495.3628732906988 202.0723419043604 0  493.9490956264813 195.3297270628552 0  492.3500664487791 188.6286280724281 0  490.5670000344809 181.9741336371959 0  488.6012504175981 175.3712970824318 0  486.4543103623226 168.8251325157939 0  484.1278102222298 162.3406109960628 0  481.6235167152198 155.9226567951971 0  478.9433315621651 149.5761436051346 0  476.0892900516498 143.3058908657982 0  473.063559513628 137.1166601437124 0  469.8684376406648 131.0131514433083 0  466.5063507675389 124.9999996907064 0  462.9798520124137 119.0817711822745 0  459.2916193464549 113.2629601339176 0  455.4444535642773 107.5479852733717 0  451.4412761528674 101.9411864767781 0  447.2851270583545 96.44682145403524 0  442.9791624165781 91.06906256805769 0  438.5266521117469 85.81199360630404 0  433.9309773156125 80.67960671046254 0  429.1956279150353 75.67579933888632 0  424.3241998888952 70.80437133373906 0  419.3203925223282 66.06902197812161 0  414.1880056411937 61.47334723289828 0  408.9309366751728 57.0208369601728 0  403.5531778009394 52.71487236176898 0  398.058812796452 48.55872331295853 0  392.4520140187753 44.55554594490843 0  386.7370391799677 40.70838020528396 0  380.9182281475119 37.02014757560744 0  374.9999996718656 33.49364886444181 0  368.9868479340393 30.13156202237255 0  362.8833392380029 26.93644017348339 0  356.6941085456942 23.91070967062674 0  350.4238558420009 21.0566681953261 0  344.0773426899492 18.37648307566465 0  337.6593885328982 15.87218960140942 0  331.1748670549786 13.54568949032341 0  324.6287025315056 11.39874946165088 0  318.0258660010876 9.432999863235466 0  311.3713716017894 7.649933468721599 0  304.6702726190621 6.050904302234756 0  297.9276578269805 4.637126656823085 0  291.148647441857 3.409674127905504 0  284.3383893425031 2.369478825079682 0  277.502055159398 1.517330660648639 0  270.6448362875833 0.853876741662134 0  263.7719400401456 0.3796208889774277 0  256.8885855592052 0.09492324285704967 0  243.1114143979462 0.09492324403817065 0  236.2280598850882 0.3796208931023841 0  229.3551635938215 0.8538767514891958 0  222.4979446968584 1.517330676558146 0  215.6616104703111 2.369478851036291 0  208.8513523382973 3.409674164591252 0  202.0723419066374 4.637126708856528 0  195.3297270659513 6.050904372824903 0  188.628628074828 7.649933550613184 0  181.9741336377093 9.432999965373938 0  175.3712970793675 11.39874958336037 0  168.8251325057572 13.54568964112298 0  162.340610986655 15.87218978129263 0  155.9226567874317 18.37648328793418 0  149.576143602509 21.05666843898663 0  143.3058908718157 23.91070994551046 0  137.1166601505524 26.93644048291054 0  131.0131514451933 30.13156235831508 0  124.9999996848412 33.49364923584736 0  119.0817711715717 37.0201479941652 0  113.2629601211624 40.70838066187849 0  107.5479852622251 44.55554644345162 0  101.9411864693332 48.55872385260452 0  96.44682143286516 52.71487295812284 0  91.06906254351222 57.02083760363669 0  85.81199358272519 61.4733479087879 0  80.67960667988106 66.06902271253972 0  75.67579930062769 70.80437212218331 0  70.80437129287643 75.67580015310926 0  66.06902193673014 80.67960752263491 0  61.47334718684866 85.81199441168215 0  57.02083692524275 91.0690633672404 0  52.71487232786438 96.44682224262129 0  48.55872328070024 101.941187247437 0  44.55554591578033 107.5479860232332 0  40.7083801742321 113.2629608675606 0  37.02014754791168 119.0817718975441 0  33.49364883372994 125.000000381329 0  30.13156199866361 131.0131521097709 0  26.9364401549829 137.1166607985551 0  23.91070965524918 143.3058914868915 0  21.05666818346614 149.576144185037 0  18.37648306853811 155.9226573275967 0  15.8721895918909 162.3406114925245 0  13.54568948170046 168.8251329701392 0  11.39874945301878 175.3712974960928 0  9.432999857087736 181.9741340206533 0  7.649933466342702 188.6286284076045 0  6.050904301250966 195.3297273853278 0  4.637126656808988 202.0723421730917 0  3.409674127767772 208.8513525589684 0  2.369478824521138 215.6616106615248 0  1.517330660909465 222.4979448382452 0  0.8538767414496533 229.355163714981 0  0.3796208887135322 236.2280599646376 0  0.09492324266324204 243.1114144478261 0  0.0949232442452228 256.8885856095658 0  0.3796208935834784 263.7719401236316 0  0.8538767530323526 270.6448364248016 0  1.517330679476544 277.5020553295092 0  2.369478854618649 284.3383895555228 0  3.409674170191892 291.1486476952655 0  4.6371267162381 297.9276581311522 0  6.050904381420935 304.6702729724059 0  7.649933562385399 311.3713719716595 0  9.43299997979841 318.0258664133013 0  11.3987495994252 324.6287029719946 0  13.54568965885832 331.174867545904 0  15.87218979367188 337.6593890464085 0  18.37648329843151 344.0773432384132 0  21.05666844777872 350.423856417535 0  23.91070995156048 356.6941091410045 0  26.93644048988043 362.8833398632205 0  30.13156235982007 368.9868485575877 0  33.49364924138357 375.0000003247478 0  37.0201480006036 380.9182288389023 0  40.70838066758398 386.7370398875706 0  44.55554644477201 392.4520147396792 0  48.55872386086904 398.0588135419111 0  52.71487295981296 403.5531785693063 0  57.02083760525949 408.9309374584583 0  61.47334790862246 414.1880064170849 0  66.06902271205095 419.320393319588 0  70.80437211216579 424.3242006890749 0  75.67580013809859 429.195628692521 0  80.6796075127923 433.930978054209 0  85.81199439754931 438.5266528008431 0  91.06906334717917 442.9791630582355 0  96.44682221438322 447.2851276501571 0  101.9411872243843 451.441276702356 0  107.5479859945825 455.4444540643537 0  113.2629608446994 459.2916198108319 0  119.0817718768376 462.9798524393601 0  125.0000003647644 466.5063511567065 0  131.0131521012763 469.8684379967393 0  137.1166607840049 473.0635598376539 0  143.3058914748804 476.0892903390826 0  149.5761441732679 478.9433318113714 0  155.9226573130112 481.6235169255377 0  162.3406114779862 484.1278104026658 0  168.8251329570439 486.4543105138039 0  175.3712974805475 488.601250542119 0  181.9741340135204 490.5670001408953 0  188.6286284005059 492.3500665318597 0  195.3297273788229 493.9490956972913 0  202.0723421640089 495.3628733414168 0  208.8513525529672 496.5903258712308 0  215.6616106544547 497.6305211744985 0  222.4979448327038 498.4826693384772 0  229.3551637102845 499.1461232581612 0  236.2280599621369 499.6203791111485 0  243.1114144470173 499.9050767573145 0  155.2373389820306 474.8197567317462 0  25.36256300907667 153.9152755065208 0  432.3709625126712 412.6214396304305 0  6.013151705810699 246.637913163471 0  246.6379131630491 493.986848294322 0  338.6995838441862 22.68244767887072 0  477.3175523131281 338.6995838660569 0  493.9868482700757 246.6379131399102 0  246.6201155078769 6.218451882810491 0  417.6179310263282 72.7156044707053 0  102.2232990934413 445.0100869616822 0  63.66330858966404 92.20354579482142 0  391.3105220491464 50.73522820883105 0  72.79295043967942 418.0702734974704 0  448.290574428537 108.25674339002 0  402.4604651193511 440.7462829841712 0  97.55317348421397 59.11376320116034 0  136.7376477664901 33.58246472647134 0  363.3288394375288 465.6947312928271 0  44.0678766556007 381.0860953771871 0  469.6905266180034 142.3890690100806 0  22.68244791668644 338.6995843487432 0  338.699584349159 477.317552078365 0  173.389488083762 18.6681884918202 0  483.4809734778481 179.7121987795732 0  13.50237455842738 306.4709525540879 0  305.9825168523021 487.24416992
[...]
<PointData  Vectors="f_12"> 
<DataArray  type="Float64"  Name="f_12"  NumberOfComponents="3" format="ascii">5.7466635142375655e-01 4.7781326285978371e-01 5.8377409348466558e-01  5.7555460589005680e-01 3.8354829387885503e-01 6.5421402381628624e-01  5.6922653704813186e-01 5.0570701348092484e-01 5.4869228374326118e-01  5.4112709244609558e-01 5.2227901672486099e-01 4.5208429116576426e-01  5.6910978687474589e-01 5.0610537174468806e-01 5.4808366681824949e-01  5.6900240850025519e-01 5.0646690325677046e-01 5.4752731579353486e-01  5.6889840069557507e-01 5.0681278822234299e-01 5.4699145757612544e-01  5.6880269122904492e-01 5.0712755709852153e-01 5.4650082418575485e-01  5.6871320116986868e-01 5.0741858730777500e-01 5.4604439873012711e-01  5.6863035148884822e-01 5.0768542818642481e-01 5.4562364664940799e-01  5.6855412569098851e-01 5.0792868573584826e-01 5.4523811954803325e-01  5.6848409360600882e-01 5.0815023415977645e-01 5.4488528546981319e-01  5.6842084487445399e-01 5.0834872734565884e-01 5.4456774450185874e-01  5.6836482910099506e-01 5.0852321226940866e-01 5.4428745192870154e-01  5.6831996379731309e-01 5.0866208577178385e-01 5.4406356973898573e-01  5.6827375274751668e-01 5.0880431445474394e-01 5.4383354271391904e-01  5.6824579114931273e-01 5.0888979185015493e-01 5.4369478259709114e-01  5.6821819767942439e-01 5.0897376851803966e-01 5.4355812139765802e-01  5.6819950543437192e-01 5.0903018931863830e-01 5.4346589700623948e-01  5.6818749655890277e-01 5.0906605123446969e-01 5.4340694321505756e-01  5.6818153677556871e-01 5.0908341463391349e-01 5.4337800681543835e-01  5.6818696458056239e-01 5.0906584362293883e-01 5.4340571862859832e-01  5.6820047934201479e-01 5.0902344550066303e-01 5.4347366726554869e-01  5.6821699195386699e-01 5.0897178144580968e-01 5.4355655149988236e-01  5.6824173334224215e-01 5.0889469877143811e-01 5.4368048108735911e-01  5.6827680222754640e-01 5.0878538238765436e-01 5.4385615694642708e-01  5.6832295762532958e-01 5.0864126776801832e-01 5.4408750602438205e-01  5.6837182245742734e-01 5.0848789756979318e-01 5.4433298407942388e-01  5.6842818642112081e-01 5.0831004654041434e-01 5.4461678135674041e-01  5.6849748108159692e-01 5.0809017069244700e-01 5.4496652342277252e-01  5.6857105091656091e-01 5.0785481586786096e-01 5.4533918616003885e-01  5.6865393174653767e-01 5.0758734487538848e-01 5.4576063070790393e-01  5.6874532917171849e-01 5.0728965102155099e-01 5.4622730639109440e-01  5.6884246894492674e-01 5.0696990094715677e-01 5.4672563662217366e-01  5.6895251499257982e-01 5.0660348840392888e-01 5.4729309714210450e-01  5.6906961969660352e-01 5.0620857487636106e-01 5.4790048834315741e-01  5.6919109678614033e-01 5.0579340145585672e-01 5.4853440382826768e-01  5.6932477162508910e-01 5.0532971802384852e-01 5.4923678784126861e-01  5.6947090707714498e-01 5.0481444529030473e-01 5.5001058586954166e-01  5.6962227449712211e-01 5.0427150146969402e-01 5.5081859479843776e-01  5.6977828772754369e-01 5.0370164860552724e-01 5.5165864752295735e-01  5.6994625032942614e-01 5.0307615237678194e-01 5.5257156340521485e-01  5.7012599337631875e-01 5.0239320871657456e-01 5.5355813578182578e-01  5.7031186699661107e-01 5.0167072727216455e-01 5.5458995811674072e-01  5.7050784713433322e-01 5.0089069935390818e-01 5.5569092837442402e-01  5.7071250437458121e-01 5.0005606422834470e-01 5.5685494953703329e-01  5.7092491524870792e-01 4.9916664859532139e-01 5.5807964898839291e-01  5.7114431324570702e-01 4.9822195725982560e-01 5.5936338030249910e-01  5.7137711702119065e-01 4.9718906122864415e-01 5.6074738751525099e-01  5.7161601430840769e-01 4.9609612970987899e-01 5.6219140484873942e-01  5.7186226750241198e-01 4.9492995373785853e-01 5.6370849043970406e-01  5.7211659252428737e-01 4.9368404533818189e-01 5.6530524892714828e-01  5.7237704153972024e-01 4.9235854451693489e-01 5.6697640467704979e-01  5.7264738235465273e-01 4.9092743186045068e-01 5.6875112854714083e-01  5.7292305505810281e-01 4.8940503780963296e-01 5.7060661915395239e-01  5.7320264838618618e-01 4.8778942583071555e-01 5.7254062330958344e-01  5.7348900448297713e-01 4.8605392589898383e-01 5.7458018910873654e-01  5.7377891177761087e-01 4.8420442825867999e-01 5.7671261978782129e-01  5.7407084804190978e-01 4.8224163049860158e-01 5.7893259449313494e-01  5.7436039222211721e-01 4.8018496089719026e-01 5.8121564915780366e-01  5.7495780882634195e-01 4.7545282997946886e-01 5.8628258158718416e-01  5.7524739452499407e-01 4.7289906863572473e-01 5.8892897633565433e-01  5.7552993320981671e-01 4.7018701948968489e-01 5.9167273894754724e-01  5.7580934636109948e-01 4.6725829085325704e-01 5.9456548313271873e-01  5.7607685952765308e-01 4.6414084097479874e-01 5.9756533143285284e-01  5.7633165798286279e-01 4.6082262538222807e-01 6.0067643311070229e-01  5.7656869146224443e-01 4.5727818282699945e-01 6.0390569198246802e-01  5.7678556583507057e-01 4.5349557019172093e-01 6.0725348899767528e-01  5.7697691048721966e-01 4.4947192063679303e-01 6.1070736019613947e-01  5.7713765033187425e-01 4.4519655628392607e-01 6.1426084207983567e-01  5.7726393863465331e-01 4.4060706635890290e-01 6.1794680190679729e-01  5.7734775800594140e-01 4.3575435681369007e-01 6.2170643947294402e-01  5.7738404370670315e-01 4.3058374972410446e-01 6.2556221970419457e-01  5.7736444710054258e-01 4.2506042008554873e-01 6.2951493908002831e-01  5.7728080053694986e-01 4.1918472378484495e-01 6.3353738081267863e-01  5.7712353428813301e-01 4.1294827800108058e-01 6.3760618743947528e-01  5.7688366770188026e-01 4.0633309726534045e-01 6.4170235080705440e-01  5.7654918453434079e-01 3.9931746755482356e-01 6.4580227289128356e-01  5.7610768923596734e-01 3.9187035120731234e-01 6.4988423635115644e-01  5.7554780924996807e-01 3.8399171847806651e-01 6.5390415008221525e-01  5.7486260126903843e-01 3.7573908532835915e-01 6.5778858776779026e-01  5.7402077209354141e-01 3.6695738666520755e-01 6.6154252880066433e-01  5.7301903083259076e-01 3.5774675554738805e-01 6.6506478396748847e-01  5.7184199816917614e-01 3.4809781773430870e-01 6.6829392152425848e-01  5.7047451209160294e-01 3.3803270977975192e-01 6.7114122414461008e-01  5.6890721184568782e-01 3.2760288296425777e-01 6.7351195641705885e-01  5.6713329011559999e-01 3.1686907601086356e-01 6.7530819485604543e-01  5.6515337488166251e-01 3.0592480976217745e-01 6.7643475771306849e-01  5.6297712590257432e-01 2.9488333362110541e-01 6.7680077257250881e-01  5.6062467793161319e-01 2.8390155557725072e-01 6.7633923051902167e-01  5.5813746033668910e-01 2.7317518466188778e-01 6.7502398223606630e-01  5.5557311335969728e-01 2.6292149310407792e-01 6.7289064315072233e-01  5.5301679939273274e-01 2.5340928418978453e-01 6.7006709492455929e-01  5.5053639828949286e-01 2.4478089809496839e-01 6.6671323969714780e-01  5.4824176795018142e-01 2.3727569130221432e-01 6.6311847131137724e-01  5.4628473808715994e-01 2.3121553798852093e-01 6.5969985072909765e-01  5.4475417897882317e-01 2.2669303568676369e-01 6.5679803854485308e-01  5.4373589602707795e-01 2.2381246886998557e-01 6.5475108213438082e-01  5.4340756282369584e-01 2.2297014767525125e-01 6.5404157499758786e-01  5.4383970683954552e-01 2.2434441614507303e-01 6.5485243923900049e-01  5.4502858483939753e-01 2.2805028974037028e-01 6.5707672216144586e-01  5.4723373404897924e-01 2.3516603001173331e-01 6.6092790307667482e-01  5.5038325894395412e-01 2.4610944804702822e-01 6.6564909323550547e-01  5.5453870600530408e-01 2.6213435188275536e-01 6.7036440263187835e-01  5.5948069542239287e-01 2.8422901826695424e-01 6.7315775295225189e-01  5.6478972085960899e-01 3.1321100227921367e-01 6.7155188727442272e-01  5.6965249264121787e-01 3.4842169810038420e-01 6.6292139057079325e-01  5.7309096929552794e-01 3.8749251430176623e-01 6.4588409670761193e-01  5.7426968713547666e-01 4.2669474726369022e-01 6.2120957830085943e-01  5.7290965622929702e-01 4.6185693335287131e-01 5.9179262173711322e-01  5.6939480003416432e-01 4.8973891374166578e-01 5.6163209500998312e-01  5.6449345649038363e-01 5.0885479503817777e-01 5.3394985054798372e-01  5.5910259916619631e-01 5.2022617212228239e-01 5.1019250325112253e-01  5.5380254381145366e-01 5.2556862504919410e-01 4.9054625864108903e-01  5.4897727541846630e-01 5.2672699589317251e-01 4.7472526053496655e-01  5.4473389081453372e-01 5.2523480782175003e-01 4.6208553699682031e-01  5.3821884278756771e-01 5.1870901943518244e-01 4.4454906160606866e-01  5.3545743774383237e-01 5.1474199590057768e-01 4.3755682980896843e-01  5.3357480568924864e-01 5.1130915668427213e-01 4.3306800659201222e-01  5.3202042835682195e-01 5.0824920426881615e-01 4.2945344153152187e-01  5.3084850827992280e-01 5.0578535815900350e-01 4.2677183633394261e-01  5.3007637080027104e-01 5.0407238530862675e-01 4.2503694283225968e-01  5.2966307483952912e-01 5.0313001524807521e-01 4.2411539409395071e-01  5.2958097819357752e-01 5.0293944548680192e-01 4.2393429507171315e-01  5.2984111188072058e-01 5.0353376480659007e-01 4.2451443415713341e-01  5.3034778914210734e-01 5.0467739552610735e-01 4.2564988863012365e-01  5.3133869242128406e-01 5.0682951661311582e-01 4.2789306609065797e-01  5.3265089395356491e-01 5.0950547242191069e-01 4.3092177068130538e-01  5.3433165413394634e-01 5.1266807231642741e-01 4.3489405995960700e-01  5.3636045075554439e-01 5.1609017354876874e-01 4.3981639666600675e-01  5.3884119251913332e-01 5.1965033371577030e-01 4.4606377415754600e-01  5.4181823439604704e-01 5.2302130052665985e-01 4.5390838452991272e-01  5.4523521715874435e-01 5.2564960137566763e-01 4.6342730239789309e-01  5.4910158214482352e-01 5.2698271912050365e-01 4.7492225237491925e-01  5.5338189538931282e-01 5.2624855903302570e-01 4.8873704605559037e-01  5.5797493366036821e-01 5.2252144590168403e-01 5.0517547514821326e-01  5.6269155858715580e-01 5.1464482746575690e-01 5.2453602851952597e-01  5.6717904503905126e-01 5.0200100840947459e-01 5.4637613841095589e-01  5.7098834177614988e-01 4.8437095717000467e-01 5.6976746930312894e-01  5.7372526362896870e-01 4.6205672873429887e-01 5.9356000705859424e-01  5.7510686872735362e-01 4.3614256145918012e-01 6.1618436850505864e-01  5.7504451013245350e-01 4.0838989225394562e-01 6.3596319628038367e-01  5.7370497013895083e-01 3.8070682638336339e-01 6.5173727068985410e-01  5.7143351220671057e-01 3.5485409100323856e-01 6.6304789100517925e-01  5.6863177528418307e-01 3.3191560205177945e-01 6.7022231378432062e-01  5.6567798424032223e-01 3.1247350130756218e-01 6.7405064712848117e-01  5.6285470832904505e-01 2.9659365245295055e-01 6.7548996600268163e-01  5.6037899022349180e-01 2.8417381290070798e-01 6.7545778590518912e-01  5.5834298628597523e-01 2.7478850814081662e-01 6.7470378204328474e-01  5.5680897031139609e-01 2.6814321120776785e-01 6.7375054320760830e-01  5.5571917024092288e-01 2.6361101743886617e-01 6.7290044772346147e-01  5.5512175113508933e-01 2.6115509921314695e-01 6.7239502434545873e-01  5.5497784078106738e-01 2.6050289192693632e-01 6.7230417627943551e-01  5.5524585768663171e-01 2.6145565322329078e-01 6.7261734092337289e-01  5.5587621490295780e-01 2.6384172502367331e-01 6.7325850024039924e-01  5.5680899491309710e-01 2.6749037480985205e-01 6.7410682668221911e-01  5.5795018086236481e-01 2.7210674210679398e-01 6.7500481209619445e-01  5.5925352477325940e-01 2.7758561303792373e-01 6.7583219443037779e-01  5.6068817841761176e-01 2.8388502952317879e-01 6.7649077779771760e-01  5.6216458203883035e-01 2.9068508469957977e-01 6.7687232076718939e-01  5.6364522648555582e-01 2.9787076060938894e-01 6.7692019096054767e-01  5.6510285154921647e-01 3.0534582708274177e-01 6.7660695600591414e-01  5.6652032992777268e-01 3.1305821095783215e-01 6.7591295826710240e-01  5.6783833195892131e-01 3.2070077103881084e-01 6.7486254098196563e-01  5.6908221673807480e-01 3.2839671002935483e-01 6.7346708279958634e-01  5.7022493702028454e-01 3.3596147993704378e-01 6.7176890395897371e-01  5.7127521585380936e-01 3.4345253678785620e-01 6.6977974957950537e-01  5.7222183055030984e-01 3.5072541695314841e-01 6.6756538709775382e-01  5.7306507892892289e-01 3.5775223468524758e-01 6.6516545987371445e-01  5.7381544688698038e-01 3.6456217454010953e-01 6.6259764516435593e-01  5.7447752740733005e-01 3.7114437696480462e-01 6.5989417304049547e-01  5.7505511589583802e-01 3.7746958467475000e-01 6.5709272736854774e-01  5.7598142778453798e-01 3.8937479461786273e-01 6.5128323337305816e-01  5.7634055663686912e-01 3.9494479391425513e-01 6.4832304088899495e-01  5.7663940080954601e-01 4.0029593619299830e-01 6.4533390907156551e-01  5.7688197715284029e-01 4.0540445686356746e-01 6.4234601840832795e-01  5.7707336863965875e-01 4.1028517877978632e-01 6.3936798282582052e-01  5.7721841719201095e-01 4.1494889781441852e-01 6.3640804489860248e-01  5.7732127854704485e-01 4.1940312039002636e-01 6.3347500074350549e-01  5.7738614606503602e-01 4.2365474082394267e-01 6.3057721572887893e-01  5.7741664030818562e-01 4.2771462043312114e-01 6.2771888019585331e-01  5.7741614427245280e-01 4.3159054784842255e-01 6.2490484997371698e-01  5.7738757279669872e-01 4.3528892478472381e-01 6.2214015376843301e-01  5.7733463397856533e-01 4.3881157059475595e-01 6.1943370346979620e-01  5.7725884750765766e-01 4.4219061336701571e-01 6.1676778337156091e-01  5.7716301826157701e-01 4.4542185272496121e-01 6.1415358939029108e-01  5.7704999249150124e-01 4.4849082755265252e-01 6.1160977909128655e-01  5.7691945864955907e-01 4.5145406190236154e-01 6.0909500464072630e-01  5.7677490382480578e-01 4.5428326278308001e-01 6.0663954641033890e-01  5.7661964673467736e-01 4.5695916207422099e-01 6.0426619504146650e-01  5.7645236961990309e-01 4.5952908358944661e-01 6.0193819870146414e-01  5.7627580938906808e-01 4.6198961555076279e-01 5.9966430114858271e-01  5.7609053449868186e-01 4.6434463882520499e-01 5.9744421922702606e-01  5.7589811891695042e-01 4.6659593305033209e-01 5.9528066745470387e-01  5.7569914542609602e-01 4.6875519621023631e-01 5.9316665597892859e-01  5.7549434190295023e-01 4.7082608648300389e-01 5.9110166080538507e-01  5.7528640852987645e-01 4.7279703420855029e-01 5.8910134126590075e-01  5.7507439983275022e-01 4.7468731016521154e-01 5.8714907643820036e-01  5.7485854790917035e-01 4.7650691539516882e-01 5.8523822596558661e-01  5.7464255614165760e-01 4.7823187165144582e-01 5.8339618938979698e-01  5.7442330717371015e-01 4.7989586786083782e-01 5.8159008908846499e-01  5.7420322080998576e-01 4.8148936026431838e-01 5.7983313652751856e-01  5.7398314995682964e-01 4.8301198351991298e-01 5.7812807477542760e-01  5.7376302616176211e-01 4.8447037001546162e-01 5.7646977504227292e-01  5.7354349378558711e-01 4.8586640889524557e-01 5.7485856859984419e-01  5.7332429103952576e-01 4.8720637395142652e-01 5.7328916131403096e-01  5.7310501747605314e-01 4.8849718607896064e-01 5.7175537119610897e-01  5.7288996686421756e-01 4.8971894347389250e-01 5.7028327371839849e-01  5.7267761977545062e-01 4.9088429161803171e-01 5.6885955903254548e-01  5.7246383475988361e-01 4.9201935976159444e-01 5.6745391263665712e-01  5.7225472354385676e-01 4.9309498753819969e-01 5.6610412154909606e-01  5.7205002777339375e-01 4.9411590711565956e-01 5.6480605576999166e-01  5.7184730740000544e-01 4.9509805623160957e-01 5.6354142568729348e-01  5.7164852370869201e-01 4.9603474985594137e-01 5.6232037856970818e-01  5.7145221449788097e-01 4.9693457562560528e-01 5.6113278754189277e-01  5.7126236556571541e-01 4.9778322255723179e-01 5.5999971779265889e-01  5.7107496299395766e-01 4.9859966559217078e-01 5.5889663962597180e-01  5.7089281863824726e-01 4.9937447857790390e-01 5.5783794191473146e-01  5.7071451020489394e-01 5.0011586021299115e-01 5.5681376061683752e-01  5.7053965929815142e-01 5.0082705517811865e-01 5.5582075211599469e-01  5.7037225614771880e-01 5.0149306082364176e-01 5.5488079759101394e-01  5.7021059485365222e-01 5.0212330681672879e-01 5.5398224552354425e-01  5.7005153726173385e-01 5.0273153497197653e-01 5.5310662693720092e-01  5.6989961535703793e-01 5.0330162242793164e-01 5.5227801035761648e-01  5.6975431866352433e-01 5.0383704884517477e-01 5.5149253556819422e-01  5.6961394394544840e-01 5.0434572464464056e-01 5.5073972823104200e-01  5.6947884174599528e-01 5.0482754088859694e-01 5.5002071768688088e-01  5.6935119056664663e-01 5.0527577104683064e-01 5.4934629236569377e-01  5.7157507214279402e-01 4.9637511146924984e-01 5.6187339082225463e-01  5.5958074953762038e-01 2.7900417305725284e-01 6.7600772566858469e-01  5.6893949653601850e-01 5.0664859653330441e-01 5.4722468753021680e-01  5.7528636653124887e-01 3.8020849950292473e-01 6.5581719392397164e-01  5.6932361527927100e-01 5.0537264885737609e-01 5.4920056340672496e-01  5.5112833177525899e-01 2.4935862755389226e-01 6.6643808062176169e-01  5.7107511938945998e-01 4.9852371488060959e-01 5.5895581886516610e-01  5.7483913143989940e-01 4.7645180917129132e-01 5.8523351872172369e-01  5.4001950933113618e-01 5.2111337392714507e-01 4.4913826349818081e-01  5.6168443232414600e-01 2.8875984892860856e-01 6.7663473755118209e-01  5.7346102077491912e-01 4.8637687966796411e-01 5.7426353583284895e-01  5.6071553406920882e-01 2.8622534861922044e-01 6.7532271151825474e-01  5.4891388897356241e-01 2.3944082353102547e-01 6.6422227784827226e-01  5.7476277553124711e-01 4.7728357197195986e-01 5.8441293379044745e-01  5.7347762116833245e-01 3.6183475474443860e-01 6.6355444284688825e-01  5.6843384631995397e-01 5.0829382102194642e-01 5.4464405311139119e-01  5.7455300435711365e-01 4.4515805760003546e-01 6.0826303612094279e-01  5.4770469635093155e-01 5.2661900034847386e-01 4.7073996369339816e-01  5.6822426538828408e-01 5.0895321606396460e-01 5.4358986887343264e-01  5.7618564524042748e-01 4.6315975319185737e-01 5.9856646960544424e-01  5.7699626332768206e-01 4.0921283962517102e-01 6.3994490337826104e-01  5.7722028359234479e-01 4.4360694662047162e-01 6.1563191006152485e-01  5.6826731788958262e-01 5.0882398758720426e-01 5.4380164955118582e-01  5.3256508603681540e-01 5.0935206328676219e-01 4.3071601951325145e-01  5.7722708889452801e-01 4.4212785910456154e-01 6.1674005418679345e-01  5.7740262009562482e-01 4.2538393205283465e-01 6.2937043785363089e-01  5.6849778728034306e-01 5.0810765763952315e-01 5.4495375398417467e-01  5.7048494980793130e-01 5.0104749167357088e-01 5.5551159932013594e-01  5.6840363634864832e-01 3.2414509846381534e-01 6.7427509534069263e-01  5.7381786727315898e-01 4.3953429785526121e-01 6.1076024093133818e-01  5.7254950417617745e-01 4.9145416843411799e-01 5.6810244471548443e-01  5.6970747490242335e-01 5.0396264479603659e-01 5.5127567617454654e-01  5.3014666886268780e-01 5.0423345696378319e-01 4.2518940414481687e-01  5.7648694785468868e-01 4.5855361602384576e-01 6.0275373745438132e-01  5.7697185089288694e-01 4.0757799767343983e-01 6.4103469468538488e-01  5.6879328883910518e-01 5.0715890031130773e-01 5.4645232643014663e-01  5.4311700640032912e-01 2.2213529792218384e-01 6.5345870793369731e-01  5.5475333520874703e-01 2.5964034602259434e-01 6.7208409246454692e-01  5.6985646180571825e-01 5.0346247533887867e-01 5.5204342872505430e-01  5.7239108909234027e-01 4.9239956203518020e-01 5.6698004155847059e-01  5.7268895163064193e-01 3.5455143228489555e-01 6.6628984874903885e-01  5.5743362676261698e-01 5.2218883124987159e-01 5.0387972478314580e-01  5.7363634045296974e-01 4.8512552994051072e-01 5.7565566597215534e-01  5.6831292483086759e-01 5.0867549758436259e-01 5.4403502408120386e-01  5.7178274662666684e-01 4.9531284193303515e-01 5.6321410426482554e-01  5.3298078531006710e-01 5.1015773760012695e-01 4.3168489041028524e-01  5.6607707595537060e-01 3.2308425197954199e-01 6.6927501985132698e-01  5.7570477554081190e-01 4.6839317006611708e-01 5.9345492914345743e-01  5.6788565539186320e-01 3.2131646652177431e-01 6.7463893655688401e-01  5.7100959810808749e-01 4.9888054349015060e-01 5.5851467738248628e-01  5.6930765821957607e-01 5.0539164609873133e-01 5.4914501885520095e-01  5.7539979545339226e-01 4.7173946025791358e-01 5.9017969816051286e-01  5.6565141687108278e-01 5.0624815827191316e-01 5.3905617659516336e-01  5.7669940290745536e-01 4.5562789988440278e-01 6.0545410439027858e-01  5.6427792612232841e-01 3.0107792993365240e-01 6.7682245424988874e-01  5.7025842034012175e-01 5.0188179921687937e-01 5.5429087505413521e-01  5.7411559482