<?xml version="1.0"?>
<VTKFile type="UnstructuredGrid"  version="0.1"  >
<UnstructuredGrid>
<Piece  NumberOfPoints="4940" NumberOfCells="9650">
<Points>
<DataArray  type="Float64"  NumberOfComponents="3"  format="ascii">500 250 0  0 250 0  250 500 0  250 0 0  256.8885856082646 499.9050767557906 0  263.7719401218049 499.6203791065173 0  270.6448364229772 499.1461232471188 0  277.5020553257866 498.4826693209355 0  284.3383895508592 497.6305211460281 0  291.1486476865662 496.5903258312597 0  297.9276581259182 495.3628732847843 0  304.6702729675493 493.9490956196674 0  311.3713719748657 492.3500664368026 0  318.0258664141369 490.5670000199653 0  324.6287029687753 488.6012504015818 0  331.1748675330201 486.4543103455647 0  337.6593890460416 484.1278102064655 0  344.0773432429536 481.6235166997244 0  350.4238564271474 478.9433315480048 0  356.694109139292 476.0892900492477 0  362.88333985546 473.0635595140469 0  368.9868485575419 469.8684376402048 0  375.0000003153078 466.5063507640667 0  380.9182288257928 462.9798520074548 0  386.7370398729688 459.2916193419558 0  392.4520147244077 455.444453565817 0  398.0588135356345 451.4412761437442 0  403.5531785622926 447.285127045646 0  408.9309374414144 442.9791624087773 0  414.1880064015299 438.5266521049243 0  419.3203932989752 433.9309773069245 0  424.324200661095 429.1956279150535 0  429.1956286596235 424.3241998957182 0  433.9309780058756 419.3203925397119 0  438.5266527445345 414.1880056671062 0  442.9791630130591 408.9309367076756 0  447.2851276060475 403.5531778422888 0  451.4412766621026 398.0588128303826 0  455.4444540361634 392.4520140460735 0  459.2916197786263 386.7370392045948 0  462.9798524073514 380.9182281752347 0  466.5063511234856 374.9999996927758 0  469.8684379657123 368.9868479560565 0  473.0635598144817 362.8833392617846 0  476.0892903190255 356.6941085676214 0  478.9433317963513 350.4238558609745 0  481.6235169154735 344.0773427117675 0  484.12781039012 337.6593885555221 0  486.4543105028062 331.1748670749914 0  488.601250531677 324.6287025528375 0  490.5670001317469 318.0258660188321 0  492.3500665291326 311.3713716102628 0  493.949095695951 304.6702726271575 0  495.3628733416623 297.9276578347343 0  496.5903258712341 291.1486474470129 0  497.6305211749058 284.3383893426084 0  498.4826693388848 277.502055163614 0  499.1461232580606 270.6448362909296 0  499.6203791109319 263.7719400417897 0  499.9050767571306 256.8885855596534 0  499.9050767559877 243.1114143988867 0  499.6203791069493 236.2280598860241 0  499.1461232485393 229.3551635941651 0  498.4826693235677 222.4979446979962 0  497.6305211491849 215.6616104719064 0  496.5903258357701 208.8513523404629 0  495.3628732906988 202.0723419043604 0  493.9490956264813 195.3297270628552 0  492.3500664487791 188.6286280724281 0  490.5670000344809 181.9741336371959 0  488.6012504175981 175.3712970824318 0  486.4543103623226 168.8251325157939 0  484.1278102222298 162.3406109960628 0  481.6235167152198 155.9226567951971 0  478.9433315621651 149.5761436051346 0  476.0892900516498 143.3058908657982 0  473.063559513628 137.1166601437124 0  469.8684376406648 131.0131514433083 0  466.5063507675389 124.9999996907064 0  462.9798520124137 119.0817711822745 0  459.2916193464549 113.2629601339176 0  455.4444535642773 107.5479852733717 0  451.4412761528674 101.9411864767781 0  447.2851270583545 96.44682145403524 0  442.9791624165781 91.06906256805769 0  438.5266521117469 85.81199360630404 0  433.9309773156125 80.67960671046254 0  429.1956279150353 75.67579933888632 0  424.3241998888952 70.80437133373906 0  419.3203925223282 66.06902197812161 0  414.1880056411937 61.47334723289828 0  408.9309366751728 57.0208369601728 0  403.5531778009394 52.71487236176898 0  398.058812796452 48.55872331295853 0  392.4520140187753 44.55554594490843 0  386.7370391799677 40.70838020528396 0  380.9182281475119 37.02014757560744 0  374.9999996718656 33.49364886444181 0  368.9868479340393 30.13156202237255 0  362.8833392380029 26.93644017348339 0  356.6941085456942 23.91070967062674 0  350.4238558420009 21.0566681953261 0  344.0773426899492 18.37648307566465 0  337.6593885328982 15.87218960140942 0  331.1748670549786 13.54568949032341 0  324.6287025315056 11.39874946165088 0  318.0258660010876 9.432999863235466 0  311.3713716017894 7.649933468721599 0  304.6702726190621 6.050904302234756 0  297.9276578269805 4.637126656823085 0  291.148647441857 3.409674127905504 0  284.3383893425031 2.369478825079682 0  277.502055159398 1.517330660648639 0  270.6448362875833 0.853876741662134 0  263.7719400401456 0.3796208889774277 0  256.8885855592052 0.09492324285704967 0  243.1114143979462 0.09492324403817065 0  236.2280598850882 0.3796208931023841 0  229.3551635938215 0.8538767514891958 0  222.4979446968584 1.517330676558146 0  215.6616104703111 2.369478851036291 0  208.8513523382973 3.409674164591252 0  202.0723419066374 4.637126708856528 0  195.3297270659513 6.050904372824903 0  188.628628074828 7.649933550613184 0  181.9741336377093 9.432999965373938 0  175.3712970793675 11.39874958336037 0  168.8251325057572 13.54568964112298 0  162.340610986655 15.87218978129263 0  155.9226567874317 18.37648328793418 0  149.576143602509 21.05666843898663 0  143.3058908718157 23.91070994551046 0  137.1166601505524 26.93644048291054 0  131.0131514451933 30.13156235831508 0  124.9999996848412 33.49364923584736 0  119.0817711715717 37.0201479941652 0  113.2629601211624 40.70838066187849 0  107.5479852622251 44.55554644345162 0  101.9411864693332 48.55872385260452 0  96.44682143286516 52.71487295812284 0  91.06906254351222 57.02083760363669 0  85.81199358272519 61.4733479087879 0  80.67960667988106 66.06902271253972 0  75.67579930062769 70.80437212218331 0  70.80437129287643 75.67580015310926 0  66.06902193673014 80.67960752263491 0  61.47334718684866 85.81199441168215 0  57.02083692524275 91.0690633672404 0  52.71487232786438 96.44682224262129 0  48.55872328070024 101.941187247437 0  44.55554591578033 107.5479860232332 0  40.7083801742321 113.2629608675606 0  37.02014754791168 119.0817718975441 0  33.49364883372994 125.000000381329 0  30.13156199866361 131.0131521097709 0  26.9364401549829 137.1166607985551 0  23.91070965524918 143.3058914868915 0  21.05666818346614 149.576144185037 0  18.37648306853811 155.9226573275967 0  15.8721895918909 162.3406114925245 0  13.54568948170046 168.8251329701392 0  11.39874945301878 175.3712974960928 0  9.432999857087736 181.9741340206533 0  7.649933466342702 188.6286284076045 0  6.050904301250966 195.3297273853278 0  4.637126656808988 202.0723421730917 0  3.409674127767772 208.8513525589684 0  2.369478824521138 215.6616106615248 0  1.517330660909465 222.4979448382452 0  0.8538767414496533 229.355163714981 0  0.3796208887135322 236.2280599646376 0  0.09492324266324204 243.1114144478261 0  0.0949232442452228 256.8885856095658 0  0.3796208935834784 263.7719401236316 0  0.8538767530323526 270.6448364248016 0  1.517330679476544 277.5020553295092 0  2.369478854618649 284.3383895555228 0  3.409674170191892 291.1486476952655 0  4.6371267162381 297.9276581311522 0  6.050904381420935 304.6702729724059 0  7.649933562385399 311.3713719716595 0  9.43299997979841 318.0258664133013 0  11.3987495994252 324.6287029719946 0  13.54568965885832 331.174867545904 0  15.87218979367188 337.6593890464085 0  18.37648329843151 344.0773432384132 0  21.05666844777872 350.423856417535 0  23.91070995156048 356.6941091410045 0  26.93644048988043 362.8833398632205 0  30.13156235982007 368.9868485575877 0  33.49364924138357 375.0000003247478 0  37.0201480006036 380.9182288389023 0  40.70838066758398 386.7370398875706 0  44.55554644477201 392.4520147396792 0  48.55872386086904 398.0588135419111 0  52.71487295981296 403.5531785693063 0  57.02083760525949 408.9309374584583 0  61.47334790862246 414.1880064170849 0  66.06902271205095 419.320393319588 0  70.80437211216579 424.3242006890749 0  75.67580013809859 429.195628692521 0  80.6796075127923 433.930978054209 0  85.81199439754931 438.5266528008431 0  91.06906334717917 442.9791630582355 0  96.44682221438322 447.2851276501571 0  101.9411872243843 451.441276702356 0  107.5479859945825 455.4444540643537 0  113.2629608446994 459.2916198108319 0  119.0817718768376 462.9798524393601 0  125.0000003647644 466.5063511567065 0  131.0131521012763 469.8684379967393 0  137.1166607840049 473.0635598376539 0  143.3058914748804 476.0892903390826 0  149.5761441732679 478.9433318113714 0  155.9226573130112 481.6235169255377 0  162.3406114779862 484.1278104026658 0  168.8251329570439 486.4543105138039 0  175.3712974805475 488.601250542119 0  181.9741340135204 490.5670001408953 0  188.6286284005059 492.3500665318597 0  195.3297273788229 493.9490956972913 0  202.0723421640089 495.3628733414168 0  208.8513525529672 496.5903258712308 0  215.6616106544547 497.6305211744985 0  222.4979448327038 498.4826693384772 0  229.3551637102845 499.1461232581612 0  236.2280599621369 499.6203791111485 0  243.1114144470173 499.9050767573145 0  155.2373389820306 474.8197567317462 0  25.36256300907667 153.9152755065208 0  432.3709625126712 412.6214396304305 0  6.013151705810699 246.637913163471 0  246.6379131630491 493.986848294322 0  338.6995838441862 22.68244767887072 0  477.3175523131281 338.6995838660569 0  493.9868482700757 246.6379131399102 0  246.6201155078769 6.218451882810491 0  417.6179310263282 72.7156044707053 0  102.2232990934413 445.0100869616822 0  63.66330858966404 92.20354579482142 0  391.3105220491464 50.73522820883105 0  72.79295043967942 418.0702734974704 0  448.290574428537 108.25674339002 0  402.4604651193511 440.7462829841712 0  97.55317348421397 59.11376320116034 0  136.7376477664901 33.58246472647134 0  363.3288394375288 465.6947312928271 0  44.0678766556007 381.0860953771871 0  469.6905266180034 142.3890690100806 0  22.68244791668644 338.6995843487432 0  338.699584349159 477.317552078365 0  173.389488083762 18.6681884918202 0  483.4809734778481 179.7121987795732 0  13.50237455842738 306.4709525540879 0  305.9825168523021 487.24416992
[...]
<PointData  Vectors="f_12"> 
<DataArray  type="Float64"  Name="f_12"  NumberOfComponents="3" format="ascii">5.6866008595649231e-01 3.2406414668986605e-01 6.7493203175356820e-01  5.7238624071936339e-01 3.4995870079376529e-01 6.6840673745813217e-01  5.6352514297308065e-01 2.9596435753822420e-01 6.7761102516549476e-01  5.7648429762344788e-01 3.9331326603577088e-01 6.4973046915538435e-01  5.6346752022515634e-01 2.9568179297100705e-01 6.7761242442549652e-01  5.6341719316566652e-01 2.9543578672974602e-01 6.7761300899419941e-01  5.6336941727473810e-01 2.9520232019430531e-01 6.7761340143029669e-01  5.6332813615734745e-01 2.9500105234534613e-01 6.7761337208544403e-01  5.6329162654899123e-01 2.9482324923951575e-01 6.7761314819717244e-01  5.6326027089822828e-01 2.9467071400616396e-01 6.7761278946342429e-01  5.6323402538421841e-01 2.9454312552676976e-01 6.7761239899968162e-01  5.6321249370527937e-01 2.9443842902848510e-01 6.7761206567907295e-01  5.6319613533332036e-01 2.9435885256772115e-01 6.7761181431918593e-01  5.6318531995847931e-01 2.9430617455286939e-01 6.7761167960789837e-01  5.6318303070386111e-01 2.9429522774958805e-01 6.7761151740403425e-01  5.6317965862184405e-01 2.9427816641200827e-01 6.7761186264907614e-01  5.6319020336885528e-01 2.9432960400649388e-01 6.7761192803267012e-01  5.6320096944907105e-01 2.9438142760911801e-01 6.7761242105048980e-01  5.6321843430027940e-01 2.9446590831555386e-01 6.7761296557888817e-01  5.6324100046399117e-01 2.9457514328682061e-01 6.7761359507295182e-01  5.6326820374814057e-01 2.9470687797665984e-01 6.7761427236853722e-01  5.6330386844132574e-01 2.9488026845446175e-01 6.7761470884798025e-01  5.6334546191814516e-01 2.9508279649149510e-01 6.7761495879727696e-01  5.6338945764592996e-01 2.9529694316885141e-01 6.7761515156186658e-01  5.6343958516399195e-01 2.9554148681296294e-01 6.7761492690439384e-01  5.6349725723625799e-01 2.9582369454709423e-01 6.7761397410809532e-01  5.6356287823293916e-01 2.9614584509986797e-01 6.7761204185088642e-01  5.6363052219684728e-01 2.9647826150070689e-01 6.7760961225548555e-01  5.6370362855751288e-01 2.9683846731172658e-01 6.7760613241082746e-01  5.6378578926430545e-01 2.9724497638945413e-01 6.7760085164257655e-01  5.6387093210241279e-01 2.9766722098047460e-01 6.7759441886589888e-01  5.6396255005835916e-01 2.9812327034894770e-01 6.7758600790804946e-01  5.6405990807765571e-01 2.9860967571945640e-01 6.7757552022494216e-01  5.6416114936520201e-01 2.9911720895100563e-01 6.7756300273685444e-01  5.6427086047533725e-01 2.9966989754402035e-01 6.7754714329212351e-01  5.6438504147513902e-01 3.0024748349974051e-01 6.7752852910979178e-01  5.6450207780229467e-01 3.0084184176951678e-01 6.7750726317598409e-01  5.6462668652258619e-01 3.0147804973145259e-01 6.7748171116194134e-01  5.6475870517980686e-01 3.0215588290793433e-01 6.7745140451420760e-01  5.6489367079506914e-01 3.0285226833619122e-01 6.7741732548979605e-01  5.6503137282977112e-01 3.0356638497544491e-01 6.7737928943125936e-01  5.6517588614098135e-01 3.0432045837611293e-01 6.7733537714416014e-01  5.6532678330683395e-01 3.0511286570366408e-01 6.7728517672567690e-01  5.6548081402936978e-01 3.0592671141309546e-01 6.7722955537819463e-01  5.6564004424889813e-01 3.0677369931164794e-01 6.7716712833867387e-01  5.6580357730765196e-01 3.0764951425636999e-01 6.7709782795767670e-01  5.6597085633536093e-01 3.0855173229648414e-01 6.7702140930882249e-01  5.6614137856254343e-01 3.0947810958880095e-01 6.7693776991653110e-01  5.6631835362554439e-01 3.1044739302333285e-01 6.7684420281633184e-01  5.6649777800797962e-01 3.1143764125930884e-01 6.7674282129946228e-01  5.6668052157506621e-01 3.1245456449577302e-01 6.7663238010081628e-01  5.6686656195918161e-01 3.1349851472027906e-01 6.7651247629918365e-01  5.6705538058155236e-01 3.1456726414622938e-01 6.7638291708429343e-01  5.6724834057177120e-01 3.1566953861181668e-01 6.7624195111395546e-01  5.6744352394355435e-01 3.1679484958539816e-01 6.7609054908981858e-01  5.6764046835316950e-01 3.1794113386464568e-01 6.7592862369319084e-01  5.6784051549208203e-01 3.1911702977735434e-01 6.7575433862293621e-01  5.6804237714526407e-01 3.2031558049113190e-01 6.7556842277010276e-01  5.6824557098088679e-01 3.2153437822318570e-01 6.7537068183167970e-01  5.6844853492206737e-01 3.2276350560932898e-01 6.7516361683766135e-01  5.6886651078396511e-01 3.2534248287069367e-01 6.7469722704824675e-01  5.6907464373682393e-01 3.2664791006600558e-01 6.7444738895915524e-01  5.6928291411935006e-01 3.2796974232411524e-01 6.7418457920303954e-01  5.6949306740089645e-01 3.2931975987890555e-01 6.7390574294095151e-01  5.6970270620925401e-01 3.3068358316173191e-01 6.7361385704119126e-01  5.6991231395815412e-01 3.3206412356157095e-01 6.7330782916027165e-01  5.7012155520149044e-01 3.3346075122138191e-01 6.7298745740819232e-01  5.7033029623544551e-01 3.3487255739776106e-01 6.7265265931647233e-01  5.7053798152151858e-01 3.3629641435010954e-01 6.7230400138737267e-01  5.7074437577678871e-01 3.3773124744476524e-01 6.7194151579118477e-01  5.7095005149155520e-01 3.3918156053697934e-01 6.7156368189187066e-01  5.7115324919166210e-01 3.4063543381807815e-01 6.7117361488808713e-01  5.7135537719615970e-01 3.4210289373186575e-01 6.7076851699084672e-01  5.7155534586564682e-01 3.4357698391675406e-01 6.7034994602319975e-01  5.7175307786982765e-01 3.4505714880148475e-01 6.6991807126698988e-01  5.7194821019439657e-01 3.4654107948498841e-01 6.6947350027148922e-01  5.7214067816285419e-01 3.4802826208082782e-01 6.6901635593965769e-01  5.7233035442374636e-01 3.4951804115289076e-01 6.6854680959335766e-01  5.7251707678130748e-01 3.5100912194330536e-01 6.6806530305505096e-01  5.7270043843280138e-01 3.5249816639439668e-01 6.6757300491936578e-01  5.7288060874446534e-01 3.5398653398054031e-01 6.6706950661929887e-01  5.7305679980617219e-01 3.5546819053322742e-01 6.6655680770654968e-01  5.7322981324051492e-01 3.5694894487782197e-01 6.6603329049196380e-01  5.7339838528662990e-01 3.5841779258796641e-01 6.6550295385966163e-01  5.7356315611886233e-01 3.5987999168712786e-01 6.6496411153963841e-01  5.7372384259618936e-01 3.6133262774979513e-01 6.6441806126546221e-01  5.7388034139661381e-01 3.6277427770442233e-01 6.6386557319448691e-01  5.7403249440864290e-01 3.6420293265568437e-01 6.6330772891998380e-01  5.7418006382298448e-01 3.6561515495621083e-01 6.6274624489868283e-01  5.7432325712736731e-01 3.6701259726294233e-01 6.6218079620807646e-01  5.7446180816306469e-01 3.6839151987675051e-01 6.6161324406989164e-01  5.7459572853752539e-01 3.6975098802471124e-01 6.6104441183996510e-01  5.7472528660803324e-01 3.7109321443692650e-01 6.6047365363536814e-01  5.7484994817317570e-01 3.7241050483084276e-01 6.5990490526847512e-01  5.7496916719420299e-01 3.7369573363008440e-01 6.5934174309025229e-01  5.7508443183853708e-01 3.7496440645449586e-01 6.5877761903162313e-01  5.7519522061086026e-01 3.7620874124013365e-01 6.5821667218930213e-01  5.7530026613421847e-01 3.7741256179125415e-01 6.5766674826874472e-01  5.7540139407979429e-01 3.7859588923602200e-01 6.5711900680910362e-01  5.7549862420528752e-01 3.7975677467848901e-01 6.5657509577898943e-01  5.7558978793912619e-01 3.8086693928248699e-01 6.5604875625424408e-01  5.7567672896709943e-01 3.8194822470505435e-01 6.5553013880954236e-01  5.7575909441643824e-01 3.8299256592236203e-01 6.5502377997484285e-01  5.7583733098927492e-01 3.8400440568423327e-01 6.5452809070268292e-01  5.7591106315637719e-01 3.8497669925544820e-01 6.5404698710233278e-01  5.7598057161300142e-01 3.8591119783348443e-01 6.5358016131865460e-01  5.7604576645133132e-01 3.8680416766726627e-01 6.5313006905722526e-01  5.7610664972501979e-01 3.8765322766839566e-01 6.5269849711149985e-01  5.7616375663262775e-01 3.8846427501030406e-01 6.5228286771448896e-01  5.7621715343302804e-01 3.8923593933956713e-01 6.5188435498673203e-01  5.7626657019943606e-01 3.8996150841749405e-01 6.5150708750520070e-01  5.7631186762862652e-01 3.9063734069222050e-01 6.5115332737749565e-01  5.7635323107552572e-01 3.9126368537927703e-01 6.5082349709485543e-01  5.7639140190017102e-01 3.9185056349178748e-01 6.5051260122007248e-01  5.7642578339792416e-01 3.9238594794019360e-01 6.5022753455383686e-01  5.7645688059432310e-01 3.9287623730985743e-01 6.4996525613270373e-01  5.7650731109958808e-01 3.9368353633672687e-01 6.4953091093349868e-01  5.7653180206125099e-01 3.9408392584016055e-01 6.4931387772324545e-01  5.7654770038657588e-01 3.9434283924842523e-01 6.4917361777765714e-01  5.7656244387324762e-01 3.9458618966483783e-01 6.4904123604462916e-01  5.7657439252036502e-01 3.9478455866971068e-01 6.4893309548741618e-01  5.7658287171108591e-01 3.9492575314956779e-01 6.4885604706536071e-01  5.7658813543875209e-01 3.9501291106886999e-01 6.4880854870520432e-01  5.7659071855603472e-01 3.9505578453645934e-01 6.4878516489993543e-01  5.7659016064171353e-01 3.9504570943249612e-01 6.4879078445550120e-01  5.7658851840660685e-01 3.9502015522476613e-01 6.4880444399088344e-01  5.7658099055464862e-01 3.9489221542142289e-01 6.4887468394740189e-01  5.7657134406632615e-01 3.9473075198827778e-01 6.4896292385024035e-01  5.7655873264003132e-01 3.9452099674451763e-01 6.4907733058903283e-01  5.7654392746655347e-01 3.9427692183444324e-01 6.4921003279768663e-01  5.7652566201547384e-01 3.9397757984122378e-01 6.4937244135631000e-01  5.7650346428964605e-01 3.9361604588898441e-01 6.4956815434842430e-01  5.7647861892312569e-01 3.9321609568474991e-01 6.4978376351511502e-01  5.7645069662204218e-01 3.9277123188495222e-01 6.5002265741670884e-01  5.7641966333466865e-01 3.9228258212819844e-01 6.5028390708625494e-01  5.7638531734302267e-01 3.9174851095746771e-01 6.5056808798556243e-01  5.7634721543305345e-01 3.9116397193623076e-01 6.5087749592286903e-01  5.7630548831862183e-01 3.9053248470141577e-01 6.5120993165598984e-01  5.7626060131589041e-01 3.8986362594040769e-01 6.5155981802514618e-01  5.7621231507968373e-01 3.8915548305927217e-01 6.5192780997455091e-01  5.7616031361965547e-01 3.8840505300060668e-01 6.5231508562643137e-01  5.7610457662470682e-01 3.8761419403937991e-01 6.5272020684729459e-01  5.7604498119754188e-01 3.8678307754368990e-01 6.5314262902907017e-01  5.7598154914732203e-01 3.8591418862995619e-01 6.5358058715989598e-01  5.7591412497509797e-01 3.8500728270540568e-01 6.5403373152070232e-01  5.7584272101528600e-01 3.8406452573548555e-01 6.5450048772825686e-01  5.7576726790063593e-01 3.8308691368165282e-01 6.5497986653908469e-01  5.7568798081177563e-01 3.8207913301849189e-01 6.5546908424595118e-01  5.7560473068823581e-01 3.8104114642166215e-01 6.5596769945334998e-01  5.7551726604621678e-01 3.7997205174551774e-01 6.5647560612308464e-01  5.7542522985901368e-01 3.7886823942753373e-01 6.5699419190707742e-01  5.7532898320708648e-01 3.7773649542953402e-01 6.5751961710248630e-01  5.7522858324769000e-01 3.7657883732565850e-01 6.5805052933543207e-01  5.7512411099331751e-01 3.7539757344077146e-01 6.5858543646277312e-01  5.7501554525405929e-01 3.7419390706797179e-01 6.5912332634558257e-01  5.7490305694828592e-01 3.7297102539787563e-01 6.5966241984359320e-01  5.7478525792720381e-01 3.7171491413900787e-01 6.6020841314001055e-01  5.7466372513035913e-01 3.7044348339411448e-01 6.6075319863420678e-01  5.7453883165577724e-01 3.6916243166497836e-01 6.6129378218852741e-01  5.7440921619039154e-01 3.6785737677112362e-01 6.6183614787632827e-01  5.7427531574317225e-01 3.6653435668329859e-01 6.6237735396457853e-01  5.7413731208922592e-01 3.6519611964885718e-01 6.6291581551186818e-01  5.7399656355753559e-01 3.6385631877638758e-01 6.6344587383512033e-01  5.7385054150323234e-01 3.6249125104677477e-01 6.6397667029685692e-01  5.7370130719061685e-01 3.6112149482943701e-01 6.6449978195736281e-01  5.7354856364538997e-01 3.5974344033992667e-01 6.6501657609556764e-01  5.7339257719756609e-01 3.5836173290636691e-01 6.6552491918536993e-01  5.7323249663075060e-01 3.5696723649348172e-01 6.6602820969963261e-01  5.7306910451567383e-01 3.5556808675220047e-01 6.6652327514070064e-01  5.7290274972076982e-01 3.5416743213429147e-01 6.6700874945841226e-01  5.7273341017310642e-01 3.5276505297959182e-01 6.6748471757499594e-01  5.7256135024440868e-01 3.5136293731888757e-01 6.6795047600294988e-01  5.7220838127000406e-01 3.4855460300323332e-01 6.6885271351775388e-01  5.7202847010591318e-01 3.4715601165124665e-01 6.6928668608323127e-01  5.7184611994628820e-01 3.4575991576342174e-01 6.6970969083384047e-01  5.7166174326091856e-01 3.4436903101921845e-01 6.7012088730081865e-01  5.7147547571781832e-01 3.4298426709929147e-01 6.7052013457419157e-01  5.7128740687252555e-01 3.4160600680211889e-01 6.7090737377205678e-01  5.7109782870823778e-01 3.4023608938751215e-01 6.7128223175132551e-01  5.7090689309317899e-01 3.3887521512087093e-01 6.7164463238099015e-01  5.7071478822459398e-01 3.3752436224790711e-01 6.7199450612121070e-01  5.7052174081098805e-01 3.3618472756143075e-01 6.7233167908133684e-01  5.7032800917714077e-01 3.3485773969207727e-01 6.7265604929700007e-01  5.7013399622813044e-01 3.3354548177987081e-01 6.7296728370323311e-01  5.6993938223117335e-01 3.3224532508673926e-01 6.7326634162692689e-01  5.6974433675164471e-01 3.3095799752658128e-01 6.7355325179299674e-01  5.6955018354463960e-01 3.2969165515020349e-01 6.7382646285459968e-01  5.6935491071154476e-01 3.2843262960863256e-01 6.7408925412426535e-01  5.6916002053496162e-01 3.2719025699077942e-01 6.7433986952457214e-01  5.6896725425696837e-01 3.2597513637292030e-01 6.7457633080677426e-01  5.6877468620596849e-01 3.2477431114865862e-01 6.7480190407461393e-01  5.6858320027494447e-01 3.2359258433725596e-01 6.7501576900716309e-01  5.6839270928030494e-01 3.2242913444926058e-01 6.7521849547804513e-01  5.6820371411429949e-01 3.2128633682436358e-01 6.7540999036218696e-01  5.6801599641615386e-01 3.2016225550065586e-01 6.7559093667240855e-01  5.6782967693649722e-01 3.1905713824441817e-01 6.7576164638308789e-01  5.6764614000266911e-01 3.1797875352192545e-01 6.7592120610888184e-01  5.6746443910433175e-01 3.1692070626140151e-01 6.7607106665408190e-01  5.6728416535310622e-01 3.1588000068626282e-01 6.7621210298421031e-01  5.6710781071783367e-01 3.1487088112343287e-01 6.7634247091765887e-01  5.6693282408585555e-01 3.1387773889319348e-01 6.7646489698136025e-01  5.6676067339670255e-01 3.1290853146093062e-01 6.7657858267907256e-01  5.6659168678643068e-01 3.1196463389693890e-01 6.7668379994053329e-01  5.6642562238520322e-01 3.1104410601955534e-01 6.7678113569250187e-01  5.6626273431232432e-01 3.1014783330155721e-01 6.7687088924059935e-01  5.6610264631142992e-01 3.0927322074477948e-01 6.7695369780808690e-01  5.6594490383781126e-01 3.0841727429149068e-01 6.7703019780937923e-01  5.6579251539151476e-01 3.0759617117970495e-01 6.7709914320338860e-01  5.6564411718899277e-01 3.0680176555232336e-01 6.7716178044628805e-01  5.6549655138597588e-01 3.0601637516215369e-01 6.7721999783702691e-01  5.6535422588595652e-01 3.0526367571060647e-01 6.7727201662163616e-01  5.6521679393119373e-01 3.0454126063845732e-01 6.7731844990633017e-01  5.6508234090397180e-01 3.0383830622832286e-01 6.7736050396214265e-01  5.6495224123764332e-01 3.0316180920384805e-01 6.7739794326752933e-01  5.6482521090167137e-01 3.0250456981524121e-01 6.7743159010825926e-01  5.6470430139397321e-01 3.0188234901611127e-01 6.7746068498707845e-01  5.6458616682509288e-01 3.0127712026350961e-01 6.7748670972307068e-01  5.6447301910510228e-01 3.0070018973470897e-01 6.7750922233533550e-01  5.6436367029592216e-01 3.0014499628650693e-01 6.7752882864388730e-01  5.6425774742104162e-01 2.9960931733519303e-01 6.7754591265081410e-01  5.6415820485626833e-01 2.9910817293303538e-01 6.7756007685374553e-01  5.6406358153553326e-01 2.9863364084703425e-01 6.7757187099756133e-01  5.6397143485430423e-01 2.9817287300966444e-01 6.7758208651051077e-01  5.6388517847461761e-01 2.9774316808680690e-01 6.7759024827783154e-01  5.6380441531010195e-01 2.9734219175817816e-01 6.7759671993936244e-01  5.6372771344490957e-01 2.9696241462055806e-01 6.7760187680859685e-01  5.6365544679804835e-01 2.9660550775470068e-01 6.7760592393159325e-01  5.6358906561363920e-01 2.9627865258933456e-01 6.7760876930997904e-01  5.6490866071220491e-01 3.0293935847939901e-01 6.7740769965442194e-01  5.7461626460709525e-01 3.6995088180605751e-01 6.6096283859834570e-01  5.6424607551254047e-01 2.9954789583447050e-01 6.7754905962709588e-01  5.7247279490203462e-01 3.5065000544999236e-01 6.6818344430420940e-01  5.6358482997155113e-01 2.9626136860902502e-01 6.7760675927490055e-01  5.7578948662753859e-01 3.8337569180949538e-01 6.5483830807428445e-01  5.6607664584254491e-01 3.0912906250849670e-01 6.7696807717914920e-01  5.6877248542190262e-01 3.2475909161029365e-01 6.7480542672335686e-01  5.7648725909971743e-01 3.9334713195516202e-01 6.4971457425505852e-01  5.7424806191627820e-01 3.6627270418767105e-01 6.6248216037021634e-01  5.6620272301043761e-01 3.0982180871227294e-01 6.7690093530285134e-01  5.7571932734720588e-01 3.8246866477120384e-01 6.5528201301705236e-01  5.7491655204198133e-01 3.7312144678153530e-01 6.5959540061694499e-01  5.6720380136585635e-01 3.1542181780208356e-01 6.7627068881172347e-01  5.7314364373718163e-01 3.5620713500353551e-01 6.6629733096374300e-01  5.6368971854076155e-01 2.9677340358429222e-01 6.7760470037042753e-01  5.7618069594720289e-01 3.8868873666176584e-01 6.5217071671350224e-01  5.7645646586114785e-01 3.9285139203239017e-01 6.4998162998448827e-01  5.6331768889086842e-01 2.9495145475260215e-01 6.7761246870149650e-01  5.6848532167943322e-01 3.2299571180485720e-01 6.7511960262944259e-01  5.7204998800983220e-01 3.4732482726169611e-01 6.6923392775865309e-01  5.6984864787933442e-01 3.3164591440514712e-01 6.7340060231828403e-01  5.6322264576995795e-01 2.9449026328730488e-01 6.7761067667261565e-01  5.7656593558946811e-01 3.9462656603498697e-01 6.4902208207706757e-01  5.7087352074152575e-01 3.3864064414594941e-01 6.7170550268402685e-01  5.7081514101362729e-01 3.3822950383435435e-01 6.7181243529280565e-01  5.6323677394458449e-01 2.9456016767119336e-01 6.7761018400648609e-01  5.6423209030211685e-01 2.9948380635167376e-01 6.7754738542376991e-01  5.7377173509758317e-01 3.6176360499349380e-01 6.6425611329607082e-01  5.7618135221223077e-01 3.8870692410389746e-01 6.5215980727399214e-01  5.6716818449210937e-01 3.1521333919431627e-01 6.7629973246642316e-01  5.6495873591718637e-01 3.0319231286404252e-01 6.7739785456487578e-01  5.7657858216727031e-01 3.9484178940669601e-01 6.4890390538870180e-01  5.7003776124293704e-01 3.3290098886005959e-01 6.7311641372303044e-01  5.7157039256629427e-01 3.4368818959653380e-01 6.7031818548329636e-01  5.6333783801154480e-01 2.9505194292590031e-01 6.7761118783298024e-01  5.7534099116131954e-01 3.7788187114705218e-01 6.5745137207879756e-01  5.7516947466234758e-01 3.7590347904057181e-01 6.5835823176178199e-01  5.6386914105255315e-01 2.9766706427449685e-01 6.7758940487018204e-01  5.6544954769693168e-01 3.0577062498946544e-01 6.7723558921614901e-01  5.7313060910627134e-01 3.5609094531617241e-01 6.6633983589437129e-01  5.7636026524474959e-01 3.9135970623258354e-01 6.5077480675613875e-01  5.6793269908433519e-01 3.1966573509558349e-01 6.7566885643732211e-01  5.6350746274943431e-01 2.9587889621829389e-01 6.7761057823104998e-01  5.6660925919445948e-01 3.1206065609262029e-01 6.7667402588833381e-01  5.7654902327542856e-01 3.9435357513966823e-01 6.4916961524297956e-01  5.7600378158354171e-01 3.8621870639759320e-01 6.5342731607909776e-01  5.6940039282745680e-01 3.2872461931315983e-01 6.7402904431791633e-01  5.7380461150161510e-01 3.6207145776544136e-01 6.6413676929783516e-01  5.6455116022018381e-01 3.0110221591836822e-01 6.7749149767886951e-01  5.6459589369789087e-01 3.0132469586797644e-01 6.7748576597510402e-01  5.6774208747697952e-01 3.1854430905961589e-01 6.7583691451820682e-01  5.7631749966484724e-01 3.9070257742432457e-01 6.5112251591116277e-01  5.6905911659706265e-01 3.2655442383263783e-01 6.7446387119063100e-01  5.7420102022063235e-01 3.6580891922152126e-01 6.6267088724647172e-01  5.6542560687674925e-01 3.0563781903359688e-01 6.7724789659464868e-01  5.6669248138