<?xml version="1.0"?>
<VTKFile type="UnstructuredGrid"  version="0.1"  >
<UnstructuredGrid>
<Piece  NumberOfPoints="25605" NumberOfCells="50684">
<Points>
<DataArray  type="Float64"  NumberOfComponents="3"  format="ascii">500 250 0  0 250 0  250 500 0  250 0 0  252.9976310880008 499.9820277697183 0  255.994831180465 499.9281136629446 0  258.9911693467 499.8382654314166 0  261.9862147844171 499.7124959931758 0  264.9795368730259 499.550823430959 0  267.9707052380909 499.3532709896657 0  270.9592898147818 499.1198670729815 0  273.944860911003 498.850645239173 0  276.9269892620302 498.5456441969613 0  279.9052461102784 498.204907798141 0  282.879203246639 497.8284850332306 0  285.8484330760252 497.4164300243493 0  288.812508703066 496.9688020138868 0  291.7710039592635 496.4856653605544 0  294.7234934645729 495.9670895309458 0  297.6695527219374 495.4131490839284 0  300.6087581526373 494.8239236640241 0  303.5406871632312 494.1994979890193 0  306.4649182085955 493.5399618372653 0  309.3810308492501 492.8454100354388 0  312.2886058121011 492.1159424449053 0  315.1872250543244 491.3516639464432 0  318.0764718164482 490.552684426976 0  320.9559306911491 489.7191187614222 0  323.8251876776197 488.8510867975364 0  326.6838302398962 487.9487133391117 0  329.5314473625203 487.0121281293906 0  332.3676296259557 486.0414658270902 0  335.1919692490408 485.0368659922747 0  338.0040601519906 483.9984730650284 0  340.8034980252745 482.926436340691 0  343.5898803648273 481.8209099570125 0  346.3628065522297 480.6820528636277 0  349.1218779058009 479.5100288014175 0  351.866697726272 478.3050062840155 0  354.5968713702315 477.0671585667096 0  357.3120063039883 475.7966636224122 0  360.0117121560444 474.4937041177227 0  362.6956007624657 473.158467392091 0  365.3632862410136 471.7911454221605 0  368.0143850392318 470.39193479756 0  370.6485159774368 468.9610366993228 0  373.2653003309281 467.4986568563726 0  375.8643618621848 466.0050055277077 0  378.4453268904447 464.4802974634425 0  381.0078243277097 462.9247518841339 0  383.5514857466806 461.3385924407896 0  386.0759454147861 459.7220471945478 0  388.5808403686633 458.0753485704519 0  391.0658104727646 456.398733318938 0  393.5304984398443 454.6924425024281 0  395.9745499014433 452.9567214483695 0  398.3976134594079 451.1918197133078 0  400.7993407313268 449.3979910505549 0  403.1793863983767 447.5754933756127 0  405.5374082633365 445.7245887228382 0  407.8730672875487 443.8455432173283 0  410.1860276678057 441.9386270139729 0  412.4759568502628 440.0041142859584 0  414.7425255888164 438.0422831775295 0  416.9854079982472 436.0534157591817 0  419.2042816111551 434.0377979776246 0  421.3988273934515 431.9957196423856 0  423.5687298230711 429.9274743545459 0  425.7136769203488 427.833359477718 0  427.8333602660664 425.7136761224903 0  429.9274751166117 423.5687290330868 0  431.9957203865596 421.3988266032683 0  434.0377986976932 419.2042808279605 0  436.0534164531565 416.9854072250276 0  438.0422838486247 414.7425248228072 0  440.0041149354581 412.4759560907189 0  441.9386276454979 410.1860269110977 0  443.8455438341414 407.8730665301906 0  445.7245893245478 405.5374075061595 0  447.5754939498422 403.1793856577179 0  449.3979916037435 400.7993399998601 0  451.1918202566634 398.3976127227471 0  452.9567219786559 395.9745491641559 0  454.6924430171686 393.53049770576 0  456.3987338202434 391.0658097392857 0  458.0753490553683 388.5808396405746 0  459.7220476673142 386.0759446861523 0  461.3385928978555 383.5514850233965 0  462.924752323721 381.0078236132563 0  464.4802978831972 378.4453261895309 0  466.005005928237 375.8643611748071 0  467.4986572464557 373.2652996426359 0  468.9610370690891 370.64851530636 0  470.3919351512159 368.0143843787793 0  471.7911457549822 365.363285601149 0  473.1584677051019 362.6956001426453 0  474.4937044170927 360.0117115451396 0  475.7966639080153 357.3120057030471 0  477.0671588375024 354.5968707823731 0  478.3050065468899 351.8666971371142 0  479.5100290514928 349.1218773267684 0  480.68205310082 346.3628059844174 0  481.8209101826405 343.5898798059497 0  482.926436550004 340.8034974883511 0  483.9984732613996 338.0040596298491 0  485.0368661774559 335.1919687381426 0  486.0414660017697 332.3676291253755 0  487.0121282892932 329.5314468859938 0  487.9487134870012 326.6838297809975 0  488.8510869337421 323.825187236945 0  489.7191188882317 320.9559302627332 0  490.5526845449373 318.0764713996244 0  491.3516640573307 315.1872246437704 0  492.1159425458163 312.2886054198597 0  492.8454101279934 309.3810304707378 0  493.5399619220304 306.4649178429931 0  494.1994980644915 303.5406868190015 0  494.8239237308971 300.6087578291331 0  495.4131491423161 297.6695524213444 0  495.9670895813101 294.7234931875826 0  496.4856654030534 291.7710037084818 0  496.9688020494549 288.8125084767419 0  497.416430053242 285.8484328766153 0  497.8284850586459 282.8792030550702 0  498.2049078189591 279.9052459374942 0  498.5456442137286 276.9269891072627 0  498.850645253019 273.9448607671062 0  499.1198670835989 270.9592896885852 0  499.3532709967772 267.9707051394148 0  499.5508234355897 264.9795367958812 0  499.7124959959075 261.9862147275054 0  499.8382654331632 258.9911692981657 0  499.928113663985 255.99483113709 0  499.9820277699785 252.9976310663071 0  499.9820277697257 247.0023689126091 0  499.9281136630343 244.0051688232745 0  499.8382654314717 241.0088306548307 0  499.7124959931211 238.0137852144455 0  499.5508234310553 235.0204631285785 0  499.3532709900699 232.0292947675166 0  499.119867073792 229.0407101948513 0  498.8506452406773 226.0551391046306 0  498.5456441987692 223.0730107546571 0  498.2049078002218 220.0947539069917 0  497.8284850356648 217.120796771709 0  497.4164300267099 214.151566940267 0  496.968802017216 211.187491318118 0  496.4856653659872 208.2289960727951 0  495.9670895372035 205.2765065698432 0  495.4131490907147 202.330447313 0  494.8239236713522 199.3912418828135 0  494.1994979969027 196.4593128727251 0  493.5399618460726 193.5350818293917 0  492.8454100458835 190.6189691934644 0  492.1159424557956 187.7113942302294 0  491.3516639574156 184.8127749862999 0  490.5526844387521 181.923528225163 0  489.7191187738694 179.0440693509028 0  488.851086810667 176.1748123648628 0  487.948713352938 173.3161698030064 0  487.0121281439243 170.4685526807917 0  486.0414658415049 167.6323704153526 0  485.0368660060558 164.8080307889799 0  483.9984730779887 161.9959398824702 0  482.9264363544502 159.1965020100202 0  481.8209099702043 156.4101196678486 0  480.6820528745703 153.6371934739656 0  479.5100288124721 150.8781221197951 0  478.3050062927852 148.1333022933829 0  477.0671585723666 145.403128642049 0  475.796663627405 142.687993706517 0  474.4937041236649 139.9882878560814 0  473.1584673984938 137.3043992502131 0  471.7911454319914 134.6367137778867 0  470.3919348096422 131.9856149833316 0  468.9610367113798 129.3514840444451 0  467.49865687022 126.7346996935054 0  466.0050055427385 124.1356381636107 0  464.4802974781252 121.5546731340727 0  462.9247519005733 118.992175699009 0  461.3385924615702 116.4485142862037 0  459.722047215144 113.924054616957 0  458.0753485880027 111.4191596576888 0  456.3987333337139 108.9341895488548 0  454.692442514023 106.4695015766915 0  452.95672145825 104.0254501122942 0  451.1918197247282 101.6023865560754 0  449.3979910627008 99.20065928473332 0  447.5754933882043 96.82061361786421 0  445.7245887341124 94.46259175085058 0  443.8455432269008 92.12693272420489 0  441.9386270210269 89.81397234064673 0  440.0041142971544 87.52404316283014 0  438.0422831897421 85.25747442512349 0  436.0534157701649 83.01459201399018 0  434.0377979907771 80.79571840315057 0  431.9957196541004 78.60117261898753 0  429.9274743620823 76.43127018474144 0  427.8333594859367 74.28632308796901 0  425.7136761283247 72.16663973969838 0  423.5687290359737 70.07252488617331 0  421.3988265987173 68.00427960915448 0  419.2042808240311 65.962201298694 0  416.9854072196475 63.94658354201471 0  414.742524818212 61.95771614734943 0  412.4759560828471 59.99588505781063 0  410.1860269003736 58.06137234555209 0  407.8730665183855 56.15445615624427 0  405.5374074948106 54.27541066643354 0  403.1793856410161 52.424506037209 0  400.7993399855741 50.60200838545225 0  398.3976127114923 48.80817973503514 0  395.9745491514178 47.04327801218227 0  393.5304976958927 45.30755697591243 0  391.0658097308475 43.60126617398947 0  388.5808396359472 41.92465094154986 0  386.0759446832285 40.27795233078868 0  383.5514850239504 38.66140710249451 0  381.007823619977 37.07524768041412 0  378.4453262000283 35.51970212308933 0  375.8643611921311 33.99499408185753 0  373.2652996617874 32.50134276439832 0  370.6485153256615 31.03896294154612 0  368.0143843882092 29.60806485383361 0  365.3632855907917 28.2088542396306 0  362.6956001322776 26.84153228966238 0  360.0117115354126 25.50629557814059 0  357.3120057003284 24.20333609069269 0  354.596870775138 22.93284115916481 0  351.8666971306181 21.69499345021163 0  349.121877320111 20.48997094563194 0  346.3628059771881 19.31794689616012 0  343.5898798100648 18.17908981902079 0  340.8034974914794 17.07356345121562 0  338.0040596332272 16.00152673987083 0  335.1919687416658 14.9631338238211 0  332.3676291322006 13.95853400061199 0  329.5314468917599 12.98787171264172 0  326.6838297822748 12.05128651341042 0  323.8251872378164 11.14891306652726 0  320.9559302656854 10.28088111264219 0  318.076471404611 9.447315456473888 0  315.1872246503818 8.648335944454999 0  312.2886054290304 7.88405745654299 0  309.3810304838133 7.154589875203868 0  306.4649178487239 6.460038079298243 0  303.5406868253978 5.800501936910877 0  300.6087578339258 5.176076270093546 0  297.669552426172 4.586850858621602 0  294.7234931936628 4.0329104197954 0  291.7710037123022 3.514334597594029 0  288.8125084726372 3.031197949900047 0  285.8484328697872 2.58356994576863 0  282.8792030484304 2.171514940473202 0  279.905245932244 1.795092180408318 0  276.9269891008954 1.454
[...]
<PointData  Vectors="f_12"> 
<DataArray  type="Float64"  Name="f_12"  NumberOfComponents="3" format="ascii">4.8832954738909085e-01 1.7747008051336186e-01 4.3344443682529432e-01  4.8499066096332194e-01 2.4217293208773785e-01 3.7953003270466007e-01  4.9370630272694305e-01 1.6482178362138275e-01 4.6821905586069384e-01  5.0772152081117172e-01 1.6384544345059901e-01 5.3786150388106058e-01  4.9375226882467776e-01 1.6476224745890006e-01 4.6848617942161036e-01  4.9379796749326205e-01 1.6470359008431096e-01 4.6875140173913205e-01  4.9384218157136422e-01 1.6464734477876222e-01 4.6900767474609384e-01  4.9388486537838161e-01 1.6459353373641339e-01 4.6925475822613971e-01  4.9392640893543172e-01 1.6454160451583563e-01 4.6949495014057741e-01  4.9396706902404813e-01 1.6449120841811779e-01 4.6972975304738462e-01  4.9400645827790174e-01 1.6444278196194567e-01 4.6995695758682327e-01  4.9404479970081727e-01 1.6439602266569009e-01 4.7017786934149902e-01  4.9408201369270660e-01 1.6435098983628532e-01 4.7039205400090489e-01  4.9411802319581788e-01 1.6430773832107107e-01 4.7059909297803587e-01  4.9415302316923138e-01 1.6426601453012712e-01 4.7080012083512834e-01  4.9418630004948955e-01 1.6422662432433310e-01 4.7099106700134308e-01  4.9421856113016160e-01 1.6418869679427395e-01 4.7117601305022239e-01  4.9424994744496520e-01 1.6415204474818587e-01 4.7135578262069450e-01  4.9427985507529204e-01 1.6411734515601933e-01 4.7152693386192102e-01  4.9430849461731058e-01 1.6408431519327799e-01 4.7169069690979892e-01  4.9433592346498084e-01 1.6405287269025620e-01 4.7184741200711006e-01  4.9436242341666592e-01 1.6402267271657506e-01 4.7199870405174421e-01  4.9438797925629924e-01 1.6399370989665704e-01 4.7214450003724695e-01  4.9441152952024769e-01 1.6396715742327642e-01 4.7227876333443169e-01  4.9443377153261209e-01 1.6394221122442779e-01 4.7240548295242940e-01  4.9445541395754633e-01 1.6391805296688766e-01 4.7252871190137430e-01  4.9447582497622034e-01 1.6389537300005338e-01 4.7264486197976585e-01  4.9449457987302670e-01 1.6387463060101989e-01 4.7275152503666085e-01  4.9451214949573197e-01 1.6385527733870589e-01 4.7285139712388269e-01  4.9452855702633325e-01 1.6383727552130370e-01 4.7294461826163214e-01  4.9454371115262763e-01 1.6382071738251514e-01 4.7303067541269800e-01  4.9455747858470939e-01 1.6380572879368788e-01 4.7310882444812397e-01  4.9457023694146762e-01 1.6379188608898992e-01 4.7318121713582517e-01  4.9458179895324589e-01 1.6377938421665345e-01 4.7324679648972673e-01  4.9459149836727373e-01 1.6376893666631809e-01 4.7330178889209684e-01  4.9459997567600522e-01 1.6375983987596790e-01 4.7334983417645382e-01  4.9460758548498529e-01 1.6375170041984854e-01 4.7339295000193121e-01  4.9461399247519006e-01 1.6374487623714945e-01 4.7342923768517936e-01  4.9461902731301821e-01 1.6373954473831831e-01 4.7345774077898961e-01  4.9462239984900186e-01 1.6373601568793011e-01 4.7347681672108921e-01  4.9462565039295475e-01 1.6373262455054349e-01 4.7349519998700657e-01  4.9462545525170787e-01 1.6373295010527439e-01 4.7349405188464799e-01  4.9462533086755006e-01 1.6373320369470085e-01 4.7349330514209181e-01  4.9462366569153288e-01 1.6373512104134805e-01 4.7348382506247338e-01  4.9462069904025768e-01 1.6373844652105629e-01 4.7346696687774392e-01  4.9461645974143942e-01 1.6374315190315861e-01 4.7344289219230612e-01  4.9461079388368578e-01 1.6374940708870717e-01 4.7341072584664678e-01  4.9460385032338799e-01 1.6375705686517830e-01 4.7337130822901075e-01  4.9459558524476105e-01 1.6376615486552495e-01 4.7332438668405480e-01  4.9458578609732756e-01 1.6377693918294092e-01 4.7326875032321986e-01  4.9457486826970742e-01 1.6378896909376958e-01 4.7320674930412099e-01  4.9456239566363658e-01 1.6380272815800673e-01 4.7313590242456821e-01  4.9454859363449027e-01 1.6381798374000650e-01 4.7305748036170997e-01  4.9453324255764941e-01 1.6383499053439304e-01 4.7297022617579837e-01  4.9451691037249618e-01 1.6385313764122519e-01 4.7287735849599144e-01  4.9449928185609088e-01 1.6387278758482274e-01 4.7277707534365004e-01  4.9447956570165458e-01 1.6389483063308841e-01 4.7266486587035345e-01  4.9445885435889236e-01 1.6391808090974244e-01 4.7254692864758335e-01  4.9443739475960968e-01 1.6394227448485421e-01 4.7242466196072874e-01  4.9441429930088837e-01 1.6396842650124757e-01 4.7229299570030192e-01  4.9438915618639051e-01 1.6399702596176524e-01 4.7214956552303067e-01  4.9436273813444820e-01 1.6402723275283393e-01 4.7199875650740619e-01  4.9433499800624892e-01 1.6405912474014114e-01 4.7184028339334694e-01  4.9430598060186315e-01 1.6409267574261210e-01 4.7167438548675433e-01  4.9427524163673398e-01 1.6412843348039258e-01 4.7149849880952655e-01  4.9424373897669288e-01 1.6416530478440297e-01 4.7131809371106348e-01  4.9420976169398101e-01 1.6420534241923540e-01 4.7112333355530023e-01  4.9417505389329142e-01 1.6424652768013012e-01 4.7092419685177939e-01  4.9413909790638788e-01 1.6428949653551422e-01 4.7071769751433046e-01  4.9410129604423364e-01 1.6433501431559225e-01 4.7050036819363739e-01  4.9406140468588827e-01 1.6438342192907801e-01 4.7027077569890063e-01  4.9402060423840449e-01 1.6443333732422644e-01 4.7003568432936976e-01  4.9397891337717553e-01 1.6448477622551205e-01 4.6979517705212415e-01  4.9393533168621379e-01 1.6453900953931100e-01 4.6954345557092464e-01  4.9388974732199642e-01 1.6459623882460883e-01 4.6927983256296568e-01  4.9384295346672147e-01 1.6465553800303917e-01 4.6900885208014170e-01  4.9379472834866844e-01 1.6471723936745586e-01 4.6872919690205539e-01  4.9374499390332921e-01 1.6478150727585386e-01 4.6844037176358821e-01  4.9369358843258154e-01 1.6484859487705056e-01 4.6814140724148617e-01  4.9364085369559435e-01 1.6491814333282104e-01 4.6783423747098579e-01  4.9358685763634014e-01 1.6499012673455823e-01 4.6751921753021497e-01  4.9353088944337947e-01 1.6506555498367317e-01 4.6719215696332145e-01  4.9347313990093522e-01 1.6514425763465357e-01 4.6685411582691216e-01  4.9341412740188628e-01 1.6522563510961860e-01 4.6650806325953559e-01  4.9335349575962972e-01 1.6531024768127842e-01 4.6615186345145115e-01  4.9329118747698247e-01 1.6539823078293342e-01 4.6578514122165382e-01  4.9322780579886322e-01 1.6548886415606476e-01 4.6541136848116199e-01  4.9316246580920675e-01 1.6558351578662742e-01 4.6502526021422219e-01  4.9309516874329795e-01 1.6568225460201383e-01 4.6462677583319872e-01  4.9302659269419946e-01 1.6578423506037251e-01 4.6421983804775613e-01  4.9295641294759007e-01 1.6589002824298962e-01 4.6380246428434191e-01  4.9288472693557556e-01 1.6599960660950633e-01 4.6337516038873816e-01  4.9281153652450177e-01 1.6611309551048381e-01 4.6293785506352964e-01  4.9273610915628252e-01 1.6623173929953261e-01 4.6248610138553731e-01  4.9265957874700239e-01 1.6635394270857470e-01 4.6202657780934037e-01  4.9258127058344192e-01 1.6648088647588136e-01 4.6155516570344751e-01  4.9250136265048894e-01 1.6661240428537255e-01 4.6107285948654386e-01  4.9242009008789933e-01 1.6674832311696472e-01 4.6058094792985699e-01  4.9233672647696419e-01 1.6688995998127906e-01 4.6007496953248167e-01  4.9225185332315818e-01 1.6703655510378168e-01 4.5955831286742860e-01  4.9216567502341424e-01 1.6718790201642472e-01 4.5903213398080067e-01  4.9207725985011624e-01 1.6734585431471355e-01 4.5849060862013352e-01  4.9198757577170699e-01 1.6750885721191150e-01 4.5793956052888979e-01  4.9189642612927381e-01 1.6767748126422807e-01 4.5737764949178289e-01  4.9180325449662576e-01 1.6785292522724293e-01 4.5680134054772331e-01  4.9170856002830421e-01 1.6803458689122863e-01 4.5621351830767093e-01  4.9161228326258516e-01 1.6822275227160152e-01 4.5561371087277491e-01  4.9151447789404251e-01 1.6841754599742936e-01 4.5500211333673068e-01  4.9141501791168896e-01 1.6861952067978653e-01 4.5437775337006830e-01  4.9131382893530984e-01 1.6882904873451249e-01 4.5374003241696531e-01  4.9121142956146790e-01 1.6904541958525812e-01 4.5309200280911566e-01  4.9110697275851145e-01 1.6927066296295576e-01 4.5242816044953127e-01  4.9100077417433130e-01 1.6950451694932067e-01 4.5175025878530062e-01  4.9089345303988541e-01 1.6974582359543772e-01 4.5106212966033793e-01  4.9078472417298669e-01 1.6999568304930118e-01 4.5036167493859275e-01  4.9067426569858053e-01 1.7025511736200352e-01 4.4964665299094431e-01  4.9056233980860364e-01 1.7052389862532527e-01 4.4891852871539101e-01  4.9044910846822659e-01 1.7080213028529614e-01 4.4817807214920863e-01  4.9033450404197326e-01 1.7109029210012236e-01 4.4742466020318677e-01  4.9021759924612374e-01 1.7139147050083575e-01 4.4665174565617555e-01  4.9009956275327154e-01 1.7170274543141914e-01 4.4586700352548747e-01  4.8998072291475692e-01 1.7202394090583403e-01 4.4507221659933394e-01  4.8986076619641822e-01 1.7235649405504813e-01 4.4426495519687897e-01  4.8973878716425284e-01 1.7270336884755369e-01 4.4343885448563036e-01  4.8961572773539608e-01 1.7306233346300487e-01 4.4260003201154990e-01  4.8949164769288928e-01 1.7343412108251327e-01 4.4174837938945843e-01  4.8936615620773843e-01 1.7382067178110716e-01 4.4088077570264728e-01  4.8923985407321641e-01 1.7422041208536829e-01 4.4000120486625022e-01  4.8911245472076570e-01 1.7463507896485578e-01 4.3910720058623154e-01  4.8898395783843807e-01 1.7506568472832729e-01 4.3819818845378794e-01  4.8885459230918249e-01 1.7551206193373711e-01 4.3727544135474511e-01  4.8872444191490944e-01 1.7597486013684926e-01 4.3633902534400842e-01  4.8859354379642400e-01 1.7645482535518239e-01 4.3538870944363134e-01  4.8846188276424901e-01 1.7695297323604464e-01 4.3442383963810183e-01  4.8819666483850277e-01 1.7800671177919128e-01 4.3245084507530557e-01  4.8806341527543584e-01 1.7856328991339657e-01 4.3144376139439333e-01  4.8792971540632679e-01 1.7914133681109282e-01 4.3042189183731944e-01  4.8779591517471727e-01 1.7974077957671186e-01 4.2938710988459794e-01  4.8766200373889584e-01 1.8036303989128691e-01 4.2833856097849360e-01  4.8752806301754975e-01 1.8100899270710274e-01 4.2727617803204210e-01  4.8739440491354785e-01 1.8167897987860937e-01 4.2620140759089475e-01  4.8726113454407893e-01 1.8237391333118383e-01 4.2511428744485924e-01  4.8712801601654510e-01 1.8309669843697862e-01 4.2401196330742730e-01  4.8699587601949640e-01 1.8384564875021830e-01 4.2289972263739101e-01  4.8686368275842162e-01 1.8462754789841349e-01 4.2176833248073142e-01  4.8673293526131656e-01 1.8543630193318927e-01 4.2062909585578451e-01  4.8660336194094700e-01 1.8627609945375767e-01 4.1947825917943776e-01  4.8647495815706598e-01 1.8714937127999204e-01 4.1831442646761330e-01  4.8634803458514020e-01 1.8805602860496839e-01 4.1713929072634959e-01  4.8622321973967048e-01 1.8899632987415399e-01 4.1595604393551977e-01  4.8609995166004555e-01 1.8997610393415221e-01 4.1475846807398375e-01  4.8597902448264629e-01 1.9099319898544298e-01 4.1355194047253480e-01  4.8586051464277080e-01 1.9205018402128304e-01 4.1233544289826585e-01  4.8574497732646188e-01 1.9314656869729266e-01 4.1111219999832488e-01  4.8563240056683182e-01 1.9428676494259073e-01 4.0987968495508431e-01  4.8552283034263771e-01 1.9547477489275533e-01 4.0863589961633467e-01  4.8541711241554575e-01 1.9670889994978327e-01 4.0738629156221839e-01  4.8531540482479424e-01 1.9799115214494345e-01 4.0613056544322162e-01  4.8521816284005348e-01 1.9932368405175635e-01 4.0486993666071880e-01  4.8512549283838707e-01 2.0070996181092729e-01 4.0360300920862918e-01  4.8503822951904535e-01 2.0215003369277124e-01 4.0233422612430619e-01  4.8495628809299435e-01 2.0365182058793543e-01 4.0105866971887583e-01  4.8488041757708106e-01 2.0521202418479467e-01 3.9978213656077383e-01  4.8481110301859420e-01 2.0683163363214335e-01 3.9850662624593103e-01  4.8474876161596975e-01 2.0851962705029492e-01 3.9722934942769972e-01  4.8469376010688187e-01 2.1027634889685004e-01 3.9595196477843403e-01  4.8464702993511066e-01 2.1210332423946326e-01 3.9467859859922994e-01  4.8460888923005435e-01 2.1400515781103813e-01 3.9340826111240190e-01  4.8457996303253853e-01 2.1598333866742972e-01 3.9214336804630884e-01  4.8456090741144614e-01 2.1804128761758534e-01 3.9088540187882326e-01  4.8455261654774234e-01 2.2018191328330866e-01 3.8963748598816622e-01  4.8455549682213711e-01 2.2241407294965670e-01 3.8839652408923003e-01  4.8457050550975650e-01 2.2473230369512995e-01 3.8717068709980845e-01  4.8459831049258284e-01 2.2714708592391739e-01 3.8595738511660527e-01  4.8463974136558124e-01 2.2966125452465738e-01 3.8475920580049400e-01  4.8469576317231094e-01 2.3227617395313599e-01 3.8358033338676145e-01  4.8476765453037662e-01 2.3499708581573717e-01 3.8242447325028861e-01  4.8485509878004429e-01 2.3782582516247652e-01 3.8128812781759208e-01  4.8496041491726799e-01 2.4076851876926933e-01 3.8018033241447269e-01  4.8508418821323307e-01 2.4383317081626796e-01 3.7909887286669747e-01  4.8522712507938875e-01 2.4701377903882693e-01 3.7805053211664236e-01  4.8539071395072353e-01 2.5032064359471340e-01 3.7703687923753931e-01  4.8557587565292376e-01 2.5375779537326565e-01 3.7605964363886912e-01  4.8578389338707045e-01 2.5732639666780771e-01 3.7512445988359205e-01  4.8601592761476897e-01 2.6103473693486084e-01 3.7423160278244927e-01  4.8627278568737936e-01 2.6487504746163382e-01 3.7338919599404896e-01  4.8655577757433932e-01 2.6885370557802202e-01 3.7259927756907979e-01  4.8686619474842419e-01 2.7298063325631006e-01 3.7186161338560542e-01  4.8720452449660046e-01 2.7724576892147074e-01 3.7118333326925185e-01  4.8757273642996374e-01 2.8165642518146744e-01 3.7056942504422014e-01  4.8797125317806755e-01 2.8621131900090874e-01 3.7002074056567630e-01  4.8840083363765985e-01 2.9090599471325101e-01 3.6954230376046715e-01  4.8886211450851935e-01 2.9573638073822467e-01 3.6913779772449229e-01  4.8935575310872342e-01 3.0069847308786390e-01 3.6881105381090329e-01  4.8988331255862111e-01 3.0579917178606536e-01 3.6856368785201815e-01  4.9044421037591790e-01 3.1102303254228258e-01 3.6839944536629038e-01  4.9103804680749119e-01 3.1635756036514817e-01 3.6832094300405249e-01  4.9166438003464930e-01 3.2179044473371277e-01 3.6833072016611312e-01  4.9232317337946979e-01 3.2731767662997896e-01 3.6842796052235638e-01  4.9301402739802985e-01 3.3292567580617904e-01 3.6861626842025519e-01  4.9373517311726217e-01 3.3859682406432262e-01 3.6889405052801144e-01  4.9448459144858969e-01 3.4431081421894066e-01 3.6926044327266899e-01  4.9526047081146907e-01 3.5004710851198551e-01 3.6971651852467419e-01  4.9606277123504727e-01 3.5580582210013584e-01 3.7025873626433531e-01  4.9688715319555488e-01 3.6155319956668625e-01 3.7088410784639142e-01  4.9772871046215805e-01 3.6725358662091040e-01 3.7158758478900283e-01  4.9858511834399499e-01 3.7289431291954223e-01 3.7236398914073920e-01  4.9945442744149399e-01 3.7846379312635514e-01 3.7320959749812388e-01  5.0033123363053755e-01 3.8393023791978509e-01 3.7411690158668642e-01  5.0121055018381910e-01 3.8926665471759264e-01 3.7507800295460775e-01  5.0208879701191844e-01 3.9445896417981224e-01 3.7608462421578714e-01  5.0296076849625737e-01 3.9948230223188247e-01 3.7712828121834563e-01  5.0382157392815785e-01 4.0431665652341015e-01 3.7819980526368790e-01  5.0466610433499937e-01 4.0894428798043797e-01 3.7928802058808830e-01  5.0548774310340494e-01 4.1333992998389274e-01 3.8038042906854919e-01  5.0628193412111788e-01 4.1749074246196516e-01 3.8146717557499382e-01  5.0704344701448079e-01 4.2138187723385717e-01 3.8253708183639340e-01  5.0776702275242713e-01 4.2499943333702073e-01 3.8357874830490774e-01  5.0844697656698246e-01 4.2832860950797513e-01 3.8457992450523981e-01  5.0907813078479858e-01 4.3135765430838841e-01 3.8552908120258633e-01  5.0965476394289722e-01 4.3407269941631427e-01 3.8641385834406450e-01  5.1017117051120076e-01 4.3646002587831612e-01 3.8722201932501626e-01  5.1062224045179183e-01 4.3850848156086203e-01 3.8794234577157322e-01  5.1100240434722277e-01 4.4020403232803396e-01 3.8856323129098058e-01  5.1130545138478156e-01 4.4152869149632590e-01 3.8907242534721881e-01  5.1152586234121300e-01 4.4246600294657623e-01 3.8945928001610997e-01  5.1165632515845538e-01 4.4298951091638605e-01 3.8971089869946857e-01  5.1169078360485454e-01 4.4307547108305406e-01 3.8981729057664427e-01  5.1162234564425779e-01 4.4269285357295945e-01 3.8976820564957931e-01  5.1144303069182984e-01 4.4180131173554921e-01 3.8955299949881084e-01  5.1114666504441342e-01 4.4036261986503134e-01 3.8916577405773423e-01  5.1073233368334015e-01 4.3835640303643858e-01 3.8861053983215693e-01  5.1018065065217955e-01 4.3567059196539609e-01 3.8786469295592924e-01  5.0948218778495680e-01 4.3222773744682219e-01 3.8692416423968234e-01  5.0864445434074435e-01 4.2801541967590773e-01 3.8581584181041373e-01  5.0765560253920139e-01 4.2291728468896372e-01 3.8454237345080766e-01  5.0652610983435609e-01 4.1691567819932845e-01 3.8314077148919645e-01  5.0523416249008324e-01 4.0981314918159872e-01 3.8160922703115602e-01  5.0377256605282283e-01 4.0148227222173438e-01 3.7996339971792314e-01  5.0222927356386116e-01 3.9221513600716001e-01 3.7839887671871819e-01  5.0054800037167235e-01 3.8163319159412856e-01 3.7686148375315209e-01  4.9877668091131083e-01 3.6984714205129898e-01 3.7547681700622676e-01  4.9692969736758524e-01 3.5677928665878639e-01 3.7433319276835714e-01  4.9505613308033547e-01 3.4255233794825313e-01 3.7358202839528026e-01  4.9323834198014521e-01 3.2757461943287197e-01 3.7337200376362878e-01  4.9150156846412568e-01 3.1183392761323886e-01 3.7385156164514804e-01  4.8990521546649701e-01 2.9562054286094236e-01 3.7516232230908042e-01  4.8851838800425490e-01 2.7935387949558638e-01 3.7743921000776370e-01  4.8740114712090832e-01 2.6336280748467927e-01 3.8084308915083115e-01  4.8659943637647274e-01 2.4797444016983050e-01 3.8545939889519698e-01  4.8615320021292030e-01 2.3352311072278487e-01 3.9134322307876845e-01  4.8608287530829342e-01 2.2025306913288331e-01 3.9848785798966052e-01  4.8639850838283449e-01 2.0829639093762328e-01 4.0689160230246457e-01  4.8708629304551171e-01 1.9790258212124470e-01 4.1633935563957974e-01  4.8813366406747855e-01 1.8895697470197342e-01 4.2682362395640799e-01  4.8949769878816451e-01 1.8162493708522087e-01 4.3800741212262284e-01  4.9113491672057535e-01 1.7565483630857220e-01 4.4977890782579677e-01  4.9298694415452021e-01 1.7100107364566161e-01 4.6183555976561885e-01  4.9500325578391108e-01 1.6754242897038024e-01 4.7396063839455510e-01  4.9712665797284800e-01 1.6513774604002146e-01 4.8592383822561142e-01  4.9931112891984408e-01 1.6362755129292200e-01 4.9756992080312440e-01  5.0148195264549056e-01 1.6288761839916704e-01 5.0859593338518883e-01  5.0363600190268487e-01 1.6275981726184099e-01 5.1907274818067228e-01  5.0572408449105732e-01 1.6310507185346335e-01 5.2885036894969717e-01  5.0961196368333472e-01 1.6484297197225406e-01 5.4612709832001360e-01  5.1138275891490792e-01 1.6604425953308918e-01 5.5363071376731043e-01  5.1302165074132422e-01 1.6736441262355312e-01 5.6038387157132141e-01  5.1452474563636952e-01 1.6874128384719606e-01 5.6641944239144038e-01  5.1589628786844310e-01 1.7012999967949990e-01 5.7179818561460782e-01  5.1714986244781269e-01 1.7150575975795690e-01 5.7660975388176483e-01  5.1826032897656471e-01 1.7281317446552782e-01 5.8078394270124378e-01  5.1926038265228858e-01 1.7405629620348798e-01 5.8447784718967710e-01  5.2013890204164903e-01 1.7519828785491168e-01 5.8767136677769283e-01  5.2090713265281519e-01 1.7623665071426478e-01 5.9042388566739690e-01  5.2157016496035158e-01 1.7716180965595954e-01 5.9276979912589822e-01  5.2212803820289533e-01 1.7796148842642245e-01 5.9472193244232241e-01  5.2259029224264741e-01 1.7863827616734726e-01 5.9632488383746374e-01  5.2295774414664564e-01 1.7918592962617333e-01 5.9758931539988602e-01  5.2323505724795827e-01 1.7960481100061573e-01 5.9853791030844172e-01  5.2342166051108419e-01 1.7988934416422700e-01 5.9917349811720988e-01  5.2352182022772054e-01 1.8004333918618035e-01 5.9951357433881547e-01  5.2353356724342692e-01 1.8006190668117047e-01 5.9955323821810935e-01  5.2345827914231413e-01 1.7994684290961355e-01 5.9929739869449417e-01  5.2330333287076680e-01 1.7971098899397236e-01 5.9876978982802143e-01  5.2306358942