<?xml version="1.0"?>
<VTKFile type="UnstructuredGrid"  version="0.1"  >
<UnstructuredGrid>
<Piece  NumberOfPoints="4940" NumberOfCells="9650">
<Points>
<DataArray  type="Float64"  NumberOfComponents="3"  format="ascii">500 250 0  0 250 0  250 500 0  250 0 0  256.8885856082646 499.9050767557906 0  263.7719401218049 499.6203791065173 0  270.6448364229772 499.1461232471188 0  277.5020553257866 498.4826693209355 0  284.3383895508592 497.6305211460281 0  291.1486476865662 496.5903258312597 0  297.9276581259182 495.3628732847843 0  304.6702729675493 493.9490956196674 0  311.3713719748657 492.3500664368026 0  318.0258664141369 490.5670000199653 0  324.6287029687753 488.6012504015818 0  331.1748675330201 486.4543103455647 0  337.6593890460416 484.1278102064655 0  344.0773432429536 481.6235166997244 0  350.4238564271474 478.9433315480048 0  356.694109139292 476.0892900492477 0  362.88333985546 473.0635595140469 0  368.9868485575419 469.8684376402048 0  375.0000003153078 466.5063507640667 0  380.9182288257928 462.9798520074548 0  386.7370398729688 459.2916193419558 0  392.4520147244077 455.444453565817 0  398.0588135356345 451.4412761437442 0  403.5531785622926 447.285127045646 0  408.9309374414144 442.9791624087773 0  414.1880064015299 438.5266521049243 0  419.3203932989752 433.9309773069245 0  424.324200661095 429.1956279150535 0  429.1956286596235 424.3241998957182 0  433.9309780058756 419.3203925397119 0  438.5266527445345 414.1880056671062 0  442.9791630130591 408.9309367076756 0  447.2851276060475 403.5531778422888 0  451.4412766621026 398.0588128303826 0  455.4444540361634 392.4520140460735 0  459.2916197786263 386.7370392045948 0  462.9798524073514 380.9182281752347 0  466.5063511234856 374.9999996927758 0  469.8684379657123 368.9868479560565 0  473.0635598144817 362.8833392617846 0  476.0892903190255 356.6941085676214 0  478.9433317963513 350.4238558609745 0  481.6235169154735 344.0773427117675 0  484.12781039012 337.6593885555221 0  486.4543105028062 331.1748670749914 0  488.601250531677 324.6287025528375 0  490.5670001317469 318.0258660188321 0  492.3500665291326 311.3713716102628 0  493.949095695951 304.6702726271575 0  495.3628733416623 297.9276578347343 0  496.5903258712341 291.1486474470129 0  497.6305211749058 284.3383893426084 0  498.4826693388848 277.502055163614 0  499.1461232580606 270.6448362909296 0  499.6203791109319 263.7719400417897 0  499.9050767571306 256.8885855596534 0  499.9050767559877 243.1114143988867 0  499.6203791069493 236.2280598860241 0  499.1461232485393 229.3551635941651 0  498.4826693235677 222.4979446979962 0  497.6305211491849 215.6616104719064 0  496.5903258357701 208.8513523404629 0  495.3628732906988 202.0723419043604 0  493.9490956264813 195.3297270628552 0  492.3500664487791 188.6286280724281 0  490.5670000344809 181.9741336371959 0  488.6012504175981 175.3712970824318 0  486.4543103623226 168.8251325157939 0  484.1278102222298 162.3406109960628 0  481.6235167152198 155.9226567951971 0  478.9433315621651 149.5761436051346 0  476.0892900516498 143.3058908657982 0  473.063559513628 137.1166601437124 0  469.8684376406648 131.0131514433083 0  466.5063507675389 124.9999996907064 0  462.9798520124137 119.0817711822745 0  459.2916193464549 113.2629601339176 0  455.4444535642773 107.5479852733717 0  451.4412761528674 101.9411864767781 0  447.2851270583545 96.44682145403524 0  442.9791624165781 91.06906256805769 0  438.5266521117469 85.81199360630404 0  433.9309773156125 80.67960671046254 0  429.1956279150353 75.67579933888632 0  424.3241998888952 70.80437133373906 0  419.3203925223282 66.06902197812161 0  414.1880056411937 61.47334723289828 0  408.9309366751728 57.0208369601728 0  403.5531778009394 52.71487236176898 0  398.058812796452 48.55872331295853 0  392.4520140187753 44.55554594490843 0  386.7370391799677 40.70838020528396 0  380.9182281475119 37.02014757560744 0  374.9999996718656 33.49364886444181 0  368.9868479340393 30.13156202237255 0  362.8833392380029 26.93644017348339 0  356.6941085456942 23.91070967062674 0  350.4238558420009 21.0566681953261 0  344.0773426899492 18.37648307566465 0  337.6593885328982 15.87218960140942 0  331.1748670549786 13.54568949032341 0  324.6287025315056 11.39874946165088 0  318.0258660010876 9.432999863235466 0  311.3713716017894 7.649933468721599 0  304.6702726190621 6.050904302234756 0  297.9276578269805 4.637126656823085 0  291.148647441857 3.409674127905504 0  284.3383893425031 2.369478825079682 0  277.502055159398 1.517330660648639 0  270.6448362875833 0.853876741662134 0  263.7719400401456 0.3796208889774277 0  256.8885855592052 0.09492324285704967 0  243.1114143979462 0.09492324403817065 0  236.2280598850882 0.3796208931023841 0  229.3551635938215 0.8538767514891958 0  222.4979446968584 1.517330676558146 0  215.6616104703111 2.369478851036291 0  208.8513523382973 3.409674164591252 0  202.0723419066374 4.637126708856528 0  195.3297270659513 6.050904372824903 0  188.628628074828 7.649933550613184 0  181.9741336377093 9.432999965373938 0  175.3712970793675 11.39874958336037 0  168.8251325057572 13.54568964112298 0  162.340610986655 15.87218978129263 0  155.9226567874317 18.37648328793418 0  149.576143602509 21.05666843898663 0  143.3058908718157 23.91070994551046 0  137.1166601505524 26.93644048291054 0  131.0131514451933 30.13156235831508 0  124.9999996848412 33.49364923584736 0  119.0817711715717 37.0201479941652 0  113.2629601211624 40.70838066187849 0  107.5479852622251 44.55554644345162 0  101.9411864693332 48.55872385260452 0  96.44682143286516 52.71487295812284 0  91.06906254351222 57.02083760363669 0  85.81199358272519 61.4733479087879 0  80.67960667988106 66.06902271253972 0  75.67579930062769 70.80437212218331 0  70.80437129287643 75.67580015310926 0  66.06902193673014 80.67960752263491 0  61.47334718684866 85.81199441168215 0  57.02083692524275 91.0690633672404 0  52.71487232786438 96.44682224262129 0  48.55872328070024 101.941187247437 0  44.55554591578033 107.5479860232332 0  40.7083801742321 113.2629608675606 0  37.02014754791168 119.0817718975441 0  33.49364883372994 125.000000381329 0  30.13156199866361 131.0131521097709 0  26.9364401549829 137.1166607985551 0  23.91070965524918 143.3058914868915 0  21.05666818346614 149.576144185037 0  18.37648306853811 155.9226573275967 0  15.8721895918909 162.3406114925245 0  13.54568948170046 168.8251329701392 0  11.39874945301878 175.3712974960928 0  9.432999857087736 181.9741340206533 0  7.649933466342702 188.6286284076045 0  6.050904301250966 195.3297273853278 0  4.637126656808988 202.0723421730917 0  3.409674127767772 208.8513525589684 0  2.369478824521138 215.6616106615248 0  1.517330660909465 222.4979448382452 0  0.8538767414496533 229.355163714981 0  0.3796208887135322 236.2280599646376 0  0.09492324266324204 243.1114144478261 0  0.0949232442452228 256.8885856095658 0  0.3796208935834784 263.7719401236316 0  0.8538767530323526 270.6448364248016 0  1.517330679476544 277.5020553295092 0  2.369478854618649 284.3383895555228 0  3.409674170191892 291.1486476952655 0  4.6371267162381 297.9276581311522 0  6.050904381420935 304.6702729724059 0  7.649933562385399 311.3713719716595 0  9.43299997979841 318.0258664133013 0  11.3987495994252 324.6287029719946 0  13.54568965885832 331.174867545904 0  15.87218979367188 337.6593890464085 0  18.37648329843151 344.0773432384132 0  21.05666844777872 350.423856417535 0  23.91070995156048 356.6941091410045 0  26.93644048988043 362.8833398632205 0  30.13156235982007 368.9868485575877 0  33.49364924138357 375.0000003247478 0  37.0201480006036 380.9182288389023 0  40.70838066758398 386.7370398875706 0  44.55554644477201 392.4520147396792 0  48.55872386086904 398.0588135419111 0  52.71487295981296 403.5531785693063 0  57.02083760525949 408.9309374584583 0  61.47334790862246 414.1880064170849 0  66.06902271205095 419.320393319588 0  70.80437211216579 424.3242006890749 0  75.67580013809859 429.195628692521 0  80.6796075127923 433.930978054209 0  85.81199439754931 438.5266528008431 0  91.06906334717917 442.9791630582355 0  96.44682221438322 447.2851276501571 0  101.9411872243843 451.441276702356 0  107.5479859945825 455.4444540643537 0  113.2629608446994 459.2916198108319 0  119.0817718768376 462.9798524393601 0  125.0000003647644 466.5063511567065 0  131.0131521012763 469.8684379967393 0  137.1166607840049 473.0635598376539 0  143.3058914748804 476.0892903390826 0  149.5761441732679 478.9433318113714 0  155.9226573130112 481.6235169255377 0  162.3406114779862 484.1278104026658 0  168.8251329570439 486.4543105138039 0  175.3712974805475 488.601250542119 0  181.9741340135204 490.5670001408953 0  188.6286284005059 492.3500665318597 0  195.3297273788229 493.9490956972913 0  202.0723421640089 495.3628733414168 0  208.8513525529672 496.5903258712308 0  215.6616106544547 497.6305211744985 0  222.4979448327038 498.4826693384772 0  229.3551637102845 499.1461232581612 0  236.2280599621369 499.6203791111485 0  243.1114144470173 499.9050767573145 0  155.2373389820306 474.8197567317462 0  25.36256300907667 153.9152755065208 0  432.3709625126712 412.6214396304305 0  6.013151705810699 246.637913163471 0  246.6379131630491 493.986848294322 0  338.6995838441862 22.68244767887072 0  477.3175523131281 338.6995838660569 0  493.9868482700757 246.6379131399102 0  246.6201155078769 6.218451882810491 0  417.6179310263282 72.7156044707053 0  102.2232990934413 445.0100869616822 0  63.66330858966404 92.20354579482142 0  391.3105220491464 50.73522820883105 0  72.79295043967942 418.0702734974704 0  448.290574428537 108.25674339002 0  402.4604651193511 440.7462829841712 0  97.55317348421397 59.11376320116034 0  136.7376477664901 33.58246472647134 0  363.3288394375288 465.6947312928271 0  44.0678766556007 381.0860953771871 0  469.6905266180034 142.3890690100806 0  22.68244791668644 338.6995843487432 0  338.699584349159 477.317552078365 0  173.389488083762 18.6681884918202 0  483.4809734778481 179.7121987795732 0  13.50237455842738 306.4709525540879 0  305.9825168523021 487.24416992
[...]
<PointData  Vectors="f_12"> 
<DataArray  type="Float64"  Name="f_12"  NumberOfComponents="3" format="ascii">3.2031743419720323e-03 1.1516304537773023e-01 8.4455228617074884e-01  3.2440907097213557e-03 1.1156073112697927e-01 8.6131089070395883e-01  3.3796030764396130e-03 1.3412338059166040e-01 8.2981547412593848e-01  3.3754920013869543e-03 1.0974590312162906e-01 8.8973081130124776e-01  3.3797756114728713e-03 1.3421300772534334e-01 8.2962607352306561e-01  3.3797115376759178e-03 1.3427365130536686e-01 8.2945649235400820e-01  3.3794087248253130e-03 1.3431719215103180e-01 8.2929289776187876e-01  3.3788672016164443e-03 1.3433693538561645e-01 8.2914339046546526e-01  3.3780872966725382e-03 1.3433221145765087e-01 8.2900876851587679e-01  3.3770703599781946e-03 1.3430529763156449e-01 8.2888615574872382e-01  3.3758178402661745e-03 1.3425564815710089e-01 8.2877674497357545e-01  3.3743320423183292e-03 1.3418322487390072e-01 8.2868090554601681e-01  3.3726155768365696e-03 1.3408879339943003e-01 8.2859779109836895e-01  3.3706736535196627e-03 1.3397093127976206e-01 8.2852969572142887e-01  3.3685179752390220e-03 1.3382509224887343e-01 8.2848345964357950e-01  3.3661332727344126e-03 1.3366851461281951e-01 8.2843704495045789e-01  3.3635549216140194e-03 1.3347801117341707e-01 8.2842115803347360e-01  3.3607561426191694e-03 1.3327708369576510e-01 8.2840490686368007e-01  3.3577698830303715e-03 1.3305091547421219e-01 8.2841090436683673e-01  3.3545924978730605e-03 1.3280588332622853e-01 8.2842977826696551e-01  3.3512305792736726e-03 1.3254196524196957e-01 8.2846230061537540e-01  3.3477204294547554e-03 1.3225433836152947e-01 8.2851936607339671e-01  3.3440466648954064e-03 1.3194939429112354e-01 8.2859036610733128e-01  3.3401849202744091e-03 1.3163324377697208e-01 8.2866457355101852e-01  3.3361909404248059e-03 1.3129788611819659e-01 8.2875932119047502e-01  3.3320839385582858e-03 1.3094408571518454e-01 8.2887497631975382e-01  3.3279014498515877e-03 1.3057132210335939e-01 8.2901704156554634e-01  3.3235511318839314e-03 1.3018944734094759e-01 8.2916143451740920e-01  3.3190939805085823e-03 1.2979419179482976e-01 8.2932068281301807e-01  3.3146251059116083e-03 1.2938224066748749e-01 8.2951111375891873e-01  3.3100198153433623e-03 1.2896120318127816e-01 8.2970680293689347e-01  3.3053801817810543e-03 1.2852827998824262e-01 8.2992394061411168e-01  3.3007371810613016e-03 1.2808405139792134e-01 8.3016557330995366e-01  3.2959777589849745e-03 1.2763210781850506e-01 8.3041216700595200e-01  3.2912768955755756e-03 1.2717087456865137e-01 8.3068814986525075e-01  3.2865681561393099e-03 1.2670231479785121e-01 8.3098196467337682e-01  3.2817629072667896e-03 1.2622699935295234e-01 8.3128131716381870e-01  3.2770478678939598e-03 1.2574598978931439e-01 8.3160819323838930e-01  3.2724551146857727e-03 1.2526145722869278e-01 8.3196345979671171e-01  3.2678456839860472e-03 1.2477254182069186e-01 8.3233059807077614e-01  3.2632012063039998e-03 1.2427873600007393e-01 8.3270764742447956e-01  3.2587177407966926e-03 1.2378465901038330e-01 8.3311287408540935e-01  3.2543702394977969e-03 1.2329099366546335e-01 8.3354177588524869e-01  3.2500643196173643e-03 1.2279567870223697e-01 8.3398509066293391e-01  3.2458973042084377e-03 1.2230198242149726e-01 8.3445044638311572e-01  3.2418620121412597e-03 1.2181027693889736e-01 8.3493611557596081e-01  3.2379466390708208e-03 1.2132056801051408e-01 8.3544024663951322e-01  3.2341286798589527e-03 1.2083202592819967e-01 8.3596081109532283e-01  3.2305621790275482e-03 1.2035164385163966e-01 8.3650771586906025e-01  3.2271427858548535e-03 1.1987539342487361e-01 8.3707278278678077e-01  3.2238914188005680e-03 1.1940435558095634e-01 8.3765681170023898e-01  3.2208397024029258e-03 1.1894031389773703e-01 8.3826125559069997e-01  3.2179104023009443e-03 1.1847970163042200e-01 8.3888053811570529e-01  3.2153065496530911e-03 1.1803304684016748e-01 8.3952634120149217e-01  3.2128739414059543e-03 1.1759270274807435e-01 8.4018873868144550e-01  3.2106069462992607e-03 1.1715828154383727e-01 8.4086715022323055e-01  3.2086097240553338e-03 1.1673594416337242e-01 8.4156646528766366e-01  3.2068541955685764e-03 1.1632408004467135e-01 8.4228472636008411e-01  3.2053307594825890e-03 1.1592248419396720e-01 8.4302068748289760e-01  3.2038821513376719e-03 1.1552149821519032e-01 8.4376664383159450e-01  3.2022164219245651e-03 1.1478545238425113e-01 8.4533200517114826e-01  3.2016867242011839e-03 1.1443059026874866e-01 8.4613626790301466e-01  3.2013235514670182e-03 1.1408234556025015e-01 8.4695294253233022e-01  3.2013494497390017e-03 1.1375616878253171e-01 8.4779005836529553e-01  3.2016286605394480e-03 1.1344275179034949e-01 8.4864173655953212e-01  3.2021232859347293e-03 1.1314013466928466e-01 8.4950583948405300e-01  3.2027904363661091e-03 1.1284484894281999e-01 8.5038071686437555e-01  3.2037938900843820e-03 1.1256897746075434e-01 8.5127118014626801e-01  3.2050227948830310e-03 1.1230482507048829e-01 8.5217284490610823e-01  3.2064467807271318e-03 1.1205060126283331e-01 8.5308421810896018e-01  3.2082707972613798e-03 1.1182146567262519e-01 8.5401037351096598e-01  3.2101728518759269e-03 1.1159382608222665e-01 8.5494181539781000e-01  3.2122502421346620e-03 1.1137540061330557e-01 8.5588054765582788e-01  3.2146904066878671e-03 1.1118072590089412e-01 8.5683041586242592e-01  3.2173332434286472e-03 1.1099820464929576e-01 8.5778650971176784e-01  3.2201668364415085e-03 1.1082677616101423e-01 8.5874799966169135e-01  3.2231853490104654e-03 1.1066660933056607e-01 8.5971396084208951e-01  3.2263729630970708e-03 1.1051676110526433e-01 8.6068337407215001e-01  3.2297623689869649e-03 1.1038051895459627e-01 8.6165580484986271e-01  3.2334168645899619e-03 1.1026385431464071e-01 8.6263053652276078e-01  3.2370451054120038e-03 1.1014149498852106e-01 8.6360447910001548e-01  3.2409621554808608e-03 1.1004316738794397e-01 8.6457864413829899e-01  3.2449417065684044e-03 1.0994781378171900e-01 8.6555080161651832e-01  3.2491113922104211e-03 1.0986813366270225e-01 8.6652033232453296e-01  3.2533505904270683e-03 1.0979378617742720e-01 8.6748594345362973e-01  3.2577147478581917e-03 1.0973053060974271e-01 8.6844641115635923e-01  3.2621774420336278e-03 1.0967680857359205e-01 8.6940048936328185e-01  3.2667190968004903e-03 1.0963136962766969e-01 8.7034709370416852e-01  3.2713267431466143e-03 1.0959384251487050e-01 8.7128505945073220e-01  3.2759775317328503e-03 1.0956245321712867e-01 8.7221342916592759e-01  3.2806804561006601e-03 1.0953942779261974e-01 8.7313052080611164e-01  3.2854089809870660e-03 1.0952267533386943e-01 8.7403537061874792e-01  3.2901111929841218e-03 1.0950640948976097e-01 8.7492877542668479e-01  3.2948420175883605e-03 1.0949953007358944e-01 8.7580658659640620e-01  3.2996184047631473e-03 1.0950601091600945e-01 8.7666530034524681e-01  3.3042867657739872e-03 1.0950507716056139e-01 8.7751220508828565e-01  3.3089112420458988e-03 1.0950726567272671e-01 8.7834180423937769e-01  3.3135387499960180e-03 1.0952179795740509e-01 8.7914809705418595e-01  3.3180471595833233e-03 1.0953014720530432e-01 8.7993939302799062e-01  3.3224744669586147e-03 1.0954020249607994e-01 8.8071027401838142e-01  3.3268673570524122e-03 1.0956343473400554e-01 8.8145261678915643e-01  3.3311347598498908e-03 1.0958407713991752e-01 8.8217377444272993e-01  3.3352679933790577e-03 1.0960160551994652e-01 8.8287429585929911e-01  3.3392680114793637e-03 1.0961815175586741e-01 8.8355123927338908e-01  3.3431453753250051e-03 1.0963849373114756e-01 8.8419961968154837e-01  3.3468665426359058e-03 1.0965650199414012e-01 8.8482316322271082e-01  3.3504304178503691e-03 1.0967421724166808e-01 8.8541915573911412e-01  3.3538285442806723e-03 1.0969194564067029e-01 8.8598610179175630e-01  3.3570456086663529e-03 1.0970698610027650e-01 8.8652543992200272e-01  3.3600718660106066e-03 1.0971742707069962e-01 8.8703825548873472e-01  3.3629080226291385e-03 1.0972791693582240e-01 8.8751897943856928e-01  3.3655483235611465e-03 1.0973973787145079e-01 8.8796551208637564e-01  3.3679783852755872e-03 1.0974843022693355e-01 8.8838142138722709e-01  3.3701916615892350e-03 1.0975329065520073e-01 8.8876621325322469e-01  3.3721851901021291e-03 1.0975513798267453e-01 8.8911899928726179e-01  3.3739524344887492e-03 1.0975188377523432e-01 8.8944151815477734e-01  3.3767922857137140e-03 1.0974504740470016e-01 8.8997502155897945e-01  3.3778730444268164e-03 1.0971839669349447e-01 8.9021474770361098e-01  3.3787064457401366e-03 1.0971336042755171e-01 8.9038971306869474e-01  3.3793039884909360e-03 1.0969255468513824e-01 8.9054583263311660e-01  3.3796619920049946e-03 1.0966951274581388e-01 8.9066609115049733e-01  3.3797818495697441e-03 1.0964547144786969e-01 8.9074903090332380e-01  3.3796651723214492e-03 1.0961754292757810e-01 8.9079916052389874e-01  3.3793116988244886e-03 1.0958462687933603e-01 8.9081697194242404e-01  3.3787266459467734e-03 1.0955401767682400e-01 8.9079395520247673e-01  3.3779073078893862e-03 1.0950718798236238e-01 8.9075246054458423e-01  3.3768636179539015e-03 1.0947042942688544e-01 8.9066334546581727e-01  3.3755998065451288e-03 1.0942916738790466e-01 8.9054278287686184e-01  3.3741212580813873e-03 1.0938891157935754e-01 8.9038449766979566e-01  3.3724209378951627e-03 1.0933552240903356e-01 8.9020690862181073e-01  3.3705179798519578e-03 1.0928342643655527e-01 8.8999277014858025e-01  3.3684235848229329e-03 1.0923532307173681e-01 8.8974079696530894e-01  3.3661353410741964e-03 1.0918374440380087e-01 8.8945961634303072e-01  3.3636660077189569e-03 1.0913212705615033e-01 8.8914682853301430e-01  3.3610217629201165e-03 1.0907957725137210e-01 8.8880407010756590e-01  3.3582066481858013e-03 1.0902487406531804e-01 8.8843316436235364e-01  3.3552441194642981e-03 1.0897353484386439e-01 8.8803042704813995e-01  3.3521487967229542e-03 1.0892716967402123e-01 8.8759552207859371e-01  3.3489115456647347e-03 1.0887924508721177e-01 8.8713534730485211e-01  3.3455449196511150e-03 1.0883146144042619e-01 8.8664936917839143e-01  3.3420650971482126e-03 1.0878583328149524e-01 8.8613690389674715e-01  3.3384868117960734e-03 1.0874363199216647e-01 8.8559827040051109e-01  3.3348247043679239e-03 1.0870594235966079e-01 8.8503399817633988e-01  3.3310849660416813e-03 1.0867183864994182e-01 8.8444593630530288e-01  3.3272853165524246e-03 1.0864292412146299e-01 8.8383430519128592e-01  3.3234356158652247e-03 1.0861914915424342e-01 8.8320037767840687e-01  3.3195460512163628e-03 1.0860051520384631e-01 8.8254536124209459e-01  3.3156302924102735e-03 1.0858773434803318e-01 8.8187009479850020e-01  3.3116822190816146e-03 1.0857854440018608e-01 8.8117688003812000e-01  3.3077366292164727e-03 1.0857674533266547e-01 8.8046499687640944e-01  3.3038353529538634e-03 1.0858773007406179e-01 8.7973339695401676e-01  3.2999537386275281e-03 1.0860568592351856e-01 8.7898609219277379e-01  3.2961186657833172e-03 1.0863323582158625e-01 8.7822305026358249e-01  3.2923188982017502e-03 1.0866768177479252e-01 8.7744656614904593e-01  3.2885757511252672e-03 1.0871083697402827e-01 8.7665709134764980e-01  3.2848705390281893e-03 1.0875938638008525e-01 8.7585645255874778e-01  3.2813185694598825e-03 1.0882681277000296e-01 8.7504243283762773e-01  3.2778937104218659e-03 1.0890847242887333e-01 8.7421747542798756e-01  3.2744635167464560e-03 1.0898762033259270e-01 8.7338637944287778e-01  3.2712166488066551e-03 1.0908592689329312e-01 8.7254553138561985e-01  3.2681229157836091e-03 1.0919914320372578e-01 8.7169711708713071e-01  3.2652201816319231e-03 1.0932942456483286e-01 8.7084215603452919e-01  3.2623064962304118e-03 1.0945488949439250e-01 8.6998397598884158e-01  3.2597308387125848e-03 1.0961316633559026e-01 8.6911970829745511e-01  3.2572049711606706e-03 1.0977179243557271e-01 8.6825344647336944e-01  3.2549543539041369e-03 1.0995381642996972e-01 8.6738434242774609e-01  3.2526807217664114e-03 1.1012916165461256e-01 8.6651420371025267e-01  3.2507305470100348e-03 1.1033159148775477e-01 8.6564323524995423e-01  3.2490315204374903e-03 1.1055331894974633e-01 8.6477284342763083e-01  3.2474969284172267e-03 1.1078542127516040e-01 8.6390365088322429e-01  3.2461853970011459e-03 1.1103293319830242e-01 8.6303668405700829e-01  3.2450631088122928e-03 1.1129268468200287e-01 8.6217237451439210e-01  3.2434107917928964e-03 1.1184943102045834e-01 8.6045457855618079e-01  3.2429723772286552e-03 1.1215415338631245e-01 8.5960364145287660e-01  3.2426988113718864e-03 1.1246781292937504e-01 8.5875752394549476e-01  3.2426802755157530e-03 1.1279797568901710e-01 8.5791829947017717e-01  3.2428681339083175e-03 1.1314032177745610e-01 8.5708571214735851e-01  3.2432790453605928e-03 1.1349603293309657e-01 8.5626066024666236e-01  3.2439065541308332e-03 1.1386438637600353e-01 8.5544357149324879e-01  3.2447573427868727e-03 1.1424585095952956e-01 8.5463515724509498e-01  3.2458342121976310e-03 1.1464044866343823e-01 8.5383607896173019e-01  3.2471428355504849e-03 1.1504839358929408e-01 8.5304713313667846e-01  3.2486429845619527e-03 1.1546653373071229e-01 8.5226765109500657e-01  3.2504093303927324e-03 1.1589992230183040e-01 8.5150084132341353e-01  3.2522799846040474e-03 1.1633726965499751e-01 8.5074137665931615e-01  3.2543844568970999e-03 1.1678724973535970e-01 8.4999463682288379e-01  3.2567135713730540e-03 1.1724901790480040e-01 8.4926091797343095e-01  3.2590443645836207e-03 1.1770840670180219e-01 8.4853115558198133e-01  3.2616575515641726e-03 1.1818296040717165e-01 8.4781799655972712e-01  3.2645211588500219e-03 1.1867029543117281e-01 8.4712114050410392e-01  3.2674643174215347e-03 1.1915964129008877e-01 8.4643326249945638e-01  3.2705348380347317e-03 1.1965414483261125e-01 8.4575682709811251e-01  3.2737318675935315e-03 1.2015327776410624e-01 8.4509267016088718e-01  3.2770694534612439e-03 1.2065766324077391e-01 8.4444216555426477e-01  3.2805150668307639e-03 1.2116535997143624e-01 8.4380418538946478e-01  3.2840421559204324e-03 1.2167486103244854e-01 8.4317768818520433e-01  3.2877215738595718e-03 1.2218873757000923e-01 8.4256862857111581e-01  3.2914356598363567e-03 1.2270174386526057e-01 8.4196939033615614e-01  3.2951930822674898e-03 1.2321388384279588e-01 8.4138149997883294e-01  3.2990741071757530e-03 1.2372741140064743e-01 8.4081235744252747e-01  3.3029576474371360e-03 1.2423769322601021e-01 8.4025321206104453e-01  3.3068588195148160e-03 1.2474493695160024e-01 8.3970610473275575e-01  3.3107789216107958e-03 1.2524848140178874e-01 8.3917240859027253e-01  3.3147168092045260e-03 1.2574751985923946e-01 8.3865328229200997e-01  3.3186449726523913e-03 1.2624075180993180e-01 8.3814741435452023e-01  3.3225394446674238e-03 1.2672730713510749e-01 8.3765325662027479e-01  3.3263768984969884e-03 1.2720666996492522e-01 8.3716887334448842e-01  3.3302175891481611e-03 1.2767663753899069e-01 8.3670501601694480e-01  3.3339955609225573e-03 1.2813690142030235e-01 8.3625398199044565e-01  3.3376382997686591e-03 1.2858888489591525e-01 8.3580548934676713e-01  3.3412341015573352e-03 1.2902839269442640e-01 8.3537627477146814e-01  3.3447423821037323e-03 1.2945504192282786e-01 8.3496171740380432e-01  3.3481285964015437e-03 1.2986953891638411e-01 8.3455716989665341e-01  3.3514000498965761e-03 1.3026961113567717e-01 8.3416668626556290e-01  3.3545328205265602e-03 1.3065610320651666e-01 8.3378668750689022e-01  3.3575368511125406e-03 1.3102493370085799e-01 8.3342345105826343e-01  3.3603782817631894e-03 1.3137938989417591e-01 8.3306936665661624e-01  3.3630617388896830e-03 1.3171576488324571e-01 8.3272947279919818e-01  3.3655766204079077e-03 1.3203389245313343e-01 8.3240325917028868e-01  3.3679031320197521e-03 1.3233583558551057e-01 8.3208573449373224e-01  3.3700473996541788e-03 1.3261661692121920e-01 8.3178439866800424e-01  3.3719968491454397e-03 1.3287720729488753e-01 8.3149629357554145e-01  3.3737369863691678e-03 1.3312010592479254e-01 8.3121704239574390e-01  3.3752701824911230e-03 1.3334118093253897e-01 8.3095195439958591e-01  3.3765892241460608e-03 1.3353764598349355e-01 8.3070459766883198e-01  3.3776858782254495e-03 1.3371564528581187e-01 8.3046521389942873e-01  3.3785546229729325e-03 1.3387328682887834e-01 8.3023615448252108e-01  3.3791963585105278e-03 1.3400573066281524e-01 8.3002448637787341e-01  3.3544382929783507e-03 1.3033506368229400e-01 8.3459904236744975e-01  3.2813642576512889e-03 1.0932395195700234e-01 8.7375596157170088e-01  3.2965288028315204e-03 1.2734450549899723e-01 8.3126301297926841e-01  3.2509478108518073e-03 1.1183091187839322e-01 8.6185947316016764e-01  3.3794654480213938e-03 1.3381034780887063e-01 8.3060742230857854e-01  3.3389171683842148e-03 1.0991006891588548e-01 8.8271497489290840e-01  3.2419672378941641e-03 1.2124984814529972e-01 8.3637844765618463e-01  3.2098683407464634e-03 1.1530057381879259e-01 8.4543645256507560e-01  3.3762749141933945e-03 1.1001602397631099e-01 8.8915227946210185e-01  3.2780562495995742e-03 1.0994601003299739e-01 8.7158653377233375e-01  3.3230110960666033e-03 1.2646385657707898e-01 8.3841899848752099e-01  3.3205139800849756e-03 1.0895343568726487e-01 8.8178775375096063e-01  3.3009079316064314e-03 1.0982760544274539e-01 8.7604650760321157e-01  3.3010947892213043e-03 1.2357497329747701e-01 8.4157904614661860e-01  3.2488958759846146e-03 1.1040305714051817e-01 8.6508952852241827e-01  3.3236965623197052e-03 1.2989680910117751e-01 8.2995624166371951e-01  3.3456827389571754e-03 1.0912788329033393e-01 8.8588565501616390e-01  3.3656896135865573e-03 1.0944441609261056e-01 8.8868391744193265e-01  3.3505244905137990e-03 1.3217618682519558e-01 8.2927927001493129e-01  3.2773423309854131e-03 1.2012742521307083e-01 8.4582448340249150e-01  3.2275043808077121e-03 1.1109215145347583e-01 8.5939918968733631e-01  3.2592750038829103e-03 1.1684837583505048e-01 8.5073135064532102e-01  3.3628023348590860e-03 1.3315212821437608e-01 8.2914084218969142e-01  3.3763677111688217e-03 1.0974027632113262e-01 8.8985733440181103e-01  3.2148654455139243e-03 1.1231238312732347e-01 8.5395840004935453e-01  3.2526493540720471e-03 1.1484432106389740e-01 8.5456143258300410e-01  3.3738478436669927e-03 1.3387635450703578e-01 8.2939748252870071e-01  3.3697089043680534e-03 1.3226571006992208e-01 8.3263209058360499e-01  3.2641509238991286e-03 1.1010895493111439e-01 8.6863160767615155e-01  3.3593553781667853e-03 1.0999439105397998e-01 8.8618025393359889e-01  3.2233483581672216e-03 1.1850961854906461e-01 8.3982040270802405e-01  3.2705866849508450e-03 1.2467072700472909e-01 8.3311940554494912e-01  3.3797468089564117e-03 1.0987247674429819e-01 8.9013258309827348e-01  3.2096595081942520e-03 1.1333832799157542e-01 8.5038278223234776e-01  3.2492355511681190e-03 1.1334504075856526e-01 8.5771775082552804e-01  3.3785225834777012e-03 1.3407240870986598e-01 8.2978114984575746e-01  3.3179447499391791e-03 1.0981480284136322e-01 8.7916740397296522e-01  3.2979909173788354e-03 1.0901679294056504e-01 8.7755191653101050e-01  3.3762303962287686e-03 1.3320689905661537e-01 8.3150555128866188e-01  3.3415070766264899e-03 1.2871755378350633e-01 8.3622775804688310e-01  3.2563024864855662e-03 1.1091610719787823e-01 8.6515510882034308e-01  3.3693037282805805e-03 1.1002254973975814e-01 8.8789195157107514e-01  3.2151403526897537e-03 1.1687795195913468e-01 8.4241943996479740e-01  3.3362396735914885e-03 1.3093459591741691e-01 8.2970892038560551e-01  3.2327541406420787e-03 1.1988709141218748e-01 8.3809625226268292e-01  3.3790899464315924e-03 1.0993098846420751e-01 8.8986957191821836e-01  3.3497513828026487e-03 1.0994518165895348e-01 8.8457789841874024e-01  3.2098480725729125e-03 1.1433317196598675e-01 8.4789062449778574e-01  3.2652144900642134e-03 1.1009308249625739e-01 8.6886732748828643e-01  3.3628785721260884e-03 1.3137506194812854e-01 8.3357873017076534e-01  3.2838495285081597e-03 1.2600016959956956e-01 8.3226243935207811e-01  3.2910601648931869e-03 1.2211354234529677e-01 8.4338133352511180e-01  3.3550500102919327e-03 1.0927098278510755e-01 8.8720990248496834e-01  3.2684600330360305e-03 1.1868174203784262e-01 8.4781460809144360e-01  3.2719984624826515e-03 1.0968087513484254e-01 8.7114660285487655e-01  3.2574350213063520e-03 1.2315642082662330e-01 8.3446768352040079e-01  3.3122475645