<?xml version="1.0"?>
<VTKFile type="UnstructuredGrid"  version="0.1"  >
<UnstructuredGrid>
<Piece  NumberOfPoints="4940" NumberOfCells="9650">
<Points>
<DataArray  type="Float64"  NumberOfComponents="3"  format="ascii">500 250 0  0 250 0  250 500 0  250 0 0  256.8885856082646 499.9050767557906 0  263.7719401218049 499.6203791065173 0  270.6448364229772 499.1461232471188 0  277.5020553257866 498.4826693209355 0  284.3383895508592 497.6305211460281 0  291.1486476865662 496.5903258312597 0  297.9276581259182 495.3628732847843 0  304.6702729675493 493.9490956196674 0  311.3713719748657 492.3500664368026 0  318.0258664141369 490.5670000199653 0  324.6287029687753 488.6012504015818 0  331.1748675330201 486.4543103455647 0  337.6593890460416 484.1278102064655 0  344.0773432429536 481.6235166997244 0  350.4238564271474 478.9433315480048 0  356.694109139292 476.0892900492477 0  362.88333985546 473.0635595140469 0  368.9868485575419 469.8684376402048 0  375.0000003153078 466.5063507640667 0  380.9182288257928 462.9798520074548 0  386.7370398729688 459.2916193419558 0  392.4520147244077 455.444453565817 0  398.0588135356345 451.4412761437442 0  403.5531785622926 447.285127045646 0  408.9309374414144 442.9791624087773 0  414.1880064015299 438.5266521049243 0  419.3203932989752 433.9309773069245 0  424.324200661095 429.1956279150535 0  429.1956286596235 424.3241998957182 0  433.9309780058756 419.3203925397119 0  438.5266527445345 414.1880056671062 0  442.9791630130591 408.9309367076756 0  447.2851276060475 403.5531778422888 0  451.4412766621026 398.0588128303826 0  455.4444540361634 392.4520140460735 0  459.2916197786263 386.7370392045948 0  462.9798524073514 380.9182281752347 0  466.5063511234856 374.9999996927758 0  469.8684379657123 368.9868479560565 0  473.0635598144817 362.8833392617846 0  476.0892903190255 356.6941085676214 0  478.9433317963513 350.4238558609745 0  481.6235169154735 344.0773427117675 0  484.12781039012 337.6593885555221 0  486.4543105028062 331.1748670749914 0  488.601250531677 324.6287025528375 0  490.5670001317469 318.0258660188321 0  492.3500665291326 311.3713716102628 0  493.949095695951 304.6702726271575 0  495.3628733416623 297.9276578347343 0  496.5903258712341 291.1486474470129 0  497.6305211749058 284.3383893426084 0  498.4826693388848 277.502055163614 0  499.1461232580606 270.6448362909296 0  499.6203791109319 263.7719400417897 0  499.9050767571306 256.8885855596534 0  499.9050767559877 243.1114143988867 0  499.6203791069493 236.2280598860241 0  499.1461232485393 229.3551635941651 0  498.4826693235677 222.4979446979962 0  497.6305211491849 215.6616104719064 0  496.5903258357701 208.8513523404629 0  495.3628732906988 202.0723419043604 0  493.9490956264813 195.3297270628552 0  492.3500664487791 188.6286280724281 0  490.5670000344809 181.9741336371959 0  488.6012504175981 175.3712970824318 0  486.4543103623226 168.8251325157939 0  484.1278102222298 162.3406109960628 0  481.6235167152198 155.9226567951971 0  478.9433315621651 149.5761436051346 0  476.0892900516498 143.3058908657982 0  473.063559513628 137.1166601437124 0  469.8684376406648 131.0131514433083 0  466.5063507675389 124.9999996907064 0  462.9798520124137 119.0817711822745 0  459.2916193464549 113.2629601339176 0  455.4444535642773 107.5479852733717 0  451.4412761528674 101.9411864767781 0  447.2851270583545 96.44682145403524 0  442.9791624165781 91.06906256805769 0  438.5266521117469 85.81199360630404 0  433.9309773156125 80.67960671046254 0  429.1956279150353 75.67579933888632 0  424.3241998888952 70.80437133373906 0  419.3203925223282 66.06902197812161 0  414.1880056411937 61.47334723289828 0  408.9309366751728 57.0208369601728 0  403.5531778009394 52.71487236176898 0  398.058812796452 48.55872331295853 0  392.4520140187753 44.55554594490843 0  386.7370391799677 40.70838020528396 0  380.9182281475119 37.02014757560744 0  374.9999996718656 33.49364886444181 0  368.9868479340393 30.13156202237255 0  362.8833392380029 26.93644017348339 0  356.6941085456942 23.91070967062674 0  350.4238558420009 21.0566681953261 0  344.0773426899492 18.37648307566465 0  337.6593885328982 15.87218960140942 0  331.1748670549786 13.54568949032341 0  324.6287025315056 11.39874946165088 0  318.0258660010876 9.432999863235466 0  311.3713716017894 7.649933468721599 0  304.6702726190621 6.050904302234756 0  297.9276578269805 4.637126656823085 0  291.148647441857 3.409674127905504 0  284.3383893425031 2.369478825079682 0  277.502055159398 1.517330660648639 0  270.6448362875833 0.853876741662134 0  263.7719400401456 0.3796208889774277 0  256.8885855592052 0.09492324285704967 0  243.1114143979462 0.09492324403817065 0  236.2280598850882 0.3796208931023841 0  229.3551635938215 0.8538767514891958 0  222.4979446968584 1.517330676558146 0  215.6616104703111 2.369478851036291 0  208.8513523382973 3.409674164591252 0  202.0723419066374 4.637126708856528 0  195.3297270659513 6.050904372824903 0  188.628628074828 7.649933550613184 0  181.9741336377093 9.432999965373938 0  175.3712970793675 11.39874958336037 0  168.8251325057572 13.54568964112298 0  162.340610986655 15.87218978129263 0  155.9226567874317 18.37648328793418 0  149.576143602509 21.05666843898663 0  143.3058908718157 23.91070994551046 0  137.1166601505524 26.93644048291054 0  131.0131514451933 30.13156235831508 0  124.9999996848412 33.49364923584736 0  119.0817711715717 37.0201479941652 0  113.2629601211624 40.70838066187849 0  107.5479852622251 44.55554644345162 0  101.9411864693332 48.55872385260452 0  96.44682143286516 52.71487295812284 0  91.06906254351222 57.02083760363669 0  85.81199358272519 61.4733479087879 0  80.67960667988106 66.06902271253972 0  75.67579930062769 70.80437212218331 0  70.80437129287643 75.67580015310926 0  66.06902193673014 80.67960752263491 0  61.47334718684866 85.81199441168215 0  57.02083692524275 91.0690633672404 0  52.71487232786438 96.44682224262129 0  48.55872328070024 101.941187247437 0  44.55554591578033 107.5479860232332 0  40.7083801742321 113.2629608675606 0  37.02014754791168 119.0817718975441 0  33.49364883372994 125.000000381329 0  30.13156199866361 131.0131521097709 0  26.9364401549829 137.1166607985551 0  23.91070965524918 143.3058914868915 0  21.05666818346614 149.576144185037 0  18.37648306853811 155.9226573275967 0  15.8721895918909 162.3406114925245 0  13.54568948170046 168.8251329701392 0  11.39874945301878 175.3712974960928 0  9.432999857087736 181.9741340206533 0  7.649933466342702 188.6286284076045 0  6.050904301250966 195.3297273853278 0  4.637126656808988 202.0723421730917 0  3.409674127767772 208.8513525589684 0  2.369478824521138 215.6616106615248 0  1.517330660909465 222.4979448382452 0  0.8538767414496533 229.355163714981 0  0.3796208887135322 236.2280599646376 0  0.09492324266324204 243.1114144478261 0  0.0949232442452228 256.8885856095658 0  0.3796208935834784 263.7719401236316 0  0.8538767530323526 270.6448364248016 0  1.517330679476544 277.5020553295092 0  2.369478854618649 284.3383895555228 0  3.409674170191892 291.1486476952655 0  4.6371267162381 297.9276581311522 0  6.050904381420935 304.6702729724059 0  7.649933562385399 311.3713719716595 0  9.43299997979841 318.0258664133013 0  11.3987495994252 324.6287029719946 0  13.54568965885832 331.174867545904 0  15.87218979367188 337.6593890464085 0  18.37648329843151 344.0773432384132 0  21.05666844777872 350.423856417535 0  23.91070995156048 356.6941091410045 0  26.93644048988043 362.8833398632205 0  30.13156235982007 368.9868485575877 0  33.49364924138357 375.0000003247478 0  37.0201480006036 380.9182288389023 0  40.70838066758398 386.7370398875706 0  44.55554644477201 392.4520147396792 0  48.55872386086904 398.0588135419111 0  52.71487295981296 403.5531785693063 0  57.02083760525949 408.9309374584583 0  61.47334790862246 414.1880064170849 0  66.06902271205095 419.320393319588 0  70.80437211216579 424.3242006890749 0  75.67580013809859 429.195628692521 0  80.6796075127923 433.930978054209 0  85.81199439754931 438.5266528008431 0  91.06906334717917 442.9791630582355 0  96.44682221438322 447.2851276501571 0  101.9411872243843 451.441276702356 0  107.5479859945825 455.4444540643537 0  113.2629608446994 459.2916198108319 0  119.0817718768376 462.9798524393601 0  125.0000003647644 466.5063511567065 0  131.0131521012763 469.8684379967393 0  137.1166607840049 473.0635598376539 0  143.3058914748804 476.0892903390826 0  149.5761441732679 478.9433318113714 0  155.9226573130112 481.6235169255377 0  162.3406114779862 484.1278104026658 0  168.8251329570439 486.4543105138039 0  175.3712974805475 488.601250542119 0  181.9741340135204 490.5670001408953 0  188.6286284005059 492.3500665318597 0  195.3297273788229 493.9490956972913 0  202.0723421640089 495.3628733414168 0  208.8513525529672 496.5903258712308 0  215.6616106544547 497.6305211744985 0  222.4979448327038 498.4826693384772 0  229.3551637102845 499.1461232581612 0  236.2280599621369 499.6203791111485 0  243.1114144470173 499.9050767573145 0  155.2373389820306 474.8197567317462 0  25.36256300907667 153.9152755065208 0  432.3709625126712 412.6214396304305 0  6.013151705810699 246.637913163471 0  246.6379131630491 493.986848294322 0  338.6995838441862 22.68244767887072 0  477.3175523131281 338.6995838660569 0  493.9868482700757 246.6379131399102 0  246.6201155078769 6.218451882810491 0  417.6179310263282 72.7156044707053 0  102.2232990934413 445.0100869616822 0  63.66330858966404 92.20354579482142 0  391.3105220491464 50.73522820883105 0  72.79295043967942 418.0702734974704 0  448.290574428537 108.25674339002 0  402.4604651193511 440.7462829841712 0  97.55317348421397 59.11376320116034 0  136.7376477664901 33.58246472647134 0  363.3288394375288 465.6947312928271 0  44.0678766556007 381.0860953771871 0  469.6905266180034 142.3890690100806 0  22.68244791668644 338.6995843487432 0  338.699584349159 477.317552078365 0  173.389488083762 18.6681884918202 0  483.4809734778481 179.7121987795732 0  13.50237455842738 306.4709525540879 0  305.9825168523021 487.24416992
[...]
<PointData  Vectors="f_12"> 
<DataArray  type="Float64"  Name="f_12"  NumberOfComponents="3" format="ascii">4.9537695221862110e-01 1.6293017552434025e-01 4.7772985020685288e-01  4.9928317865545457e-01 1.6071966390404324e-01 4.9848174250775673e-01  4.9164002953347485e-01 1.6805699816700864e-01 4.5582907472907425e-01  5.0688272998192840e-01 1.6187950107483626e-01 5.3464619922487266e-01  4.9160581297736355e-01 1.6812360687494393e-01 4.5561593566960734e-01  4.9157545600354829e-01 1.6818309863174966e-01 4.5542659360842214e-01  4.9154761698456251e-01 1.6823794250419360e-01 4.5525277229289646e-01  4.9152330419444906e-01 1.6828608465471789e-01 4.5510081637924360e-01  4.9150208260141426e-01 1.6832829049755826e-01 4.5496806438891552e-01  4.9148400597536729e-01 1.6836437110982552e-01 4.5485490292297265e-01  4.9146907054827482e-01 1.6839426931741366e-01 4.5476134950862868e-01  4.9145718216910245e-01 1.6841811842960652e-01 4.5468684790455521e-01  4.9144845604478665e-01 1.6843564618121140e-01 4.5463214621524944e-01  4.9144301984903549e-01 1.6844656531579202e-01 4.5459806466646718e-01  4.9144162915784056e-01 1.6844935720506884e-01 4.5458934510961285e-01  4.9144168027630297e-01 1.6844917919118726e-01 4.5458969531532156e-01  4.9144735846730214e-01 1.6843772647737618e-01 4.5462531155636732e-01  4.9145487889637218e-01 1.6842253366753915e-01 4.5467248909925262e-01  4.9146600627872061e-01 1.6840012702823537e-01 4.5474225654499700e-01  4.9148031870588255e-01 1.6837138210081853e-01 4.5483194790082204e-01  4.9149772620733706e-01 1.6833652964811510e-01 4.5494096737228135e-01  4.9151935755478304e-01 1.6829343181863729e-01 4.5507631845891766e-01  4.9154443909123191e-01 1.6824368562284148e-01 4.5523311960376972e-01  4.9157208013918807e-01 1.6818912123925805e-01 4.5540575428870372e-01  4.9160330572633165e-01 1.6812784135487838e-01 4.5560055494987700e-01  4.9163864759489767e-01 1.6805896726873770e-01 4.5582073860354394e-01  4.9167812295268354e-01 1.6798260776161664e-01 4.5606632337975889e-01  4.9172016461058016e-01 1.6790190325667298e-01 4.5632748082897068e-01  4.9176583443586064e-01 1.6781498973772230e-01 4.5661070482819033e-01  4.9181610590115643e-01 1.6772023218317048e-01 4.5692190096346691e-01  4.9186933218612183e-01 1.6762090113454026e-01 4.5725076152947758e-01  4.9192663864648711e-01 1.6751511909303216e-01 4.5760410362365078e-01  4.9198772130859358e-01 1.6740364884764558e-01 4.5797992628928735e-01  4.9205214836913425e-01 1.6728749372125112e-01 4.5837542841513396e-01  4.9212139655191328e-01 1.6716429180335746e-01 4.5879949621721694e-01  4.9219421269787483e-01 1.6703651263575461e-01 4.5924429862820421e-01  4.9227024132597369e-01 1.6690499654582672e-01 4.5970751529788489e-01  4.9235101749824844e-01 1.6676740527456291e-01 4.6019830951633556e-01  4.9243652342045491e-01 1.6662412502338636e-01 4.6071634683585777e-01  4.9252535563642647e-01 1.6647775377799787e-01 4.6125295337493577e-01  4.9261764846908224e-01 1.6632833400566080e-01 4.6180876907675222e-01  4.9271473897318341e-01 1.6617404094581106e-01 4.6239163391267052e-01  4.9281638642680187e-01 1.6601560170732002e-01 4.6299987377827645e-01  4.9292183235275350e-01 1.6585456626088219e-01 4.6362871561310764e-01  4.9303178910495954e-01 1.6569015523263841e-01 4.6428219658624709e-01  4.9314590296434541e-01 1.6552323682276254e-01 4.6495799014674721e-01  4.9326414879212954e-01 1.6535418531039300e-01 4.6565572076212869e-01  4.9338641812741518e-01 1.6518349983096131e-01 4.6637453146214058e-01  4.9351402482047646e-01 1.6500978740893055e-01 4.6712183627103171e-01  4.9364526918328261e-01 1.6483560424393393e-01 4.6788751815090784e-01  4.9378107661747433e-01 1.6466020502395870e-01 4.6867666018570536e-01  4.9392089838779979e-01 1.6448450414826138e-01 4.6948590762976561e-01  4.9406522110785511e-01 1.6430834316158013e-01 4.7031779125820616e-01  4.9421418762324149e-01 1.6413188222176125e-01 4.7117288672748509e-01  4.9436728099602900e-01 1.6395609063880490e-01 4.7204797912967589e-01  4.9452443632979731e-01 1.6378140568956484e-01 4.7294245378714178e-01  4.9468623156469133e-01 1.6360744245071368e-01 4.7385938338881595e-01  4.9485216870402876e-01 1.6343514889791352e-01 4.7479568470213557e-01  4.9502195461225829e-01 1.6326502164059692e-01 4.7574949209973805e-01  4.9519496925949830e-01 1.6309751375456266e-01 4.7671756137225979e-01  4.9555814182462904e-01 1.6276803097779047e-01 4.7873442912320657e-01  4.9574448609530425e-01 1.6260893653115727e-01 4.7976246714766463e-01  4.9593485266427356e-01 1.6245345138408412e-01 4.8080785812139520e-01  4.9612960315980009e-01 1.6230139063883789e-01 4.8187237725973331e-01  4.9632780729352921e-01 1.6215404566042604e-01 4.8295070682024216e-01  4.9652962195730782e-01 1.6201106657144274e-01 4.8404364458015608e-01  4.9673531506105750e-01 1.6187300050681541e-01 4.8515225947964347e-01  4.9694447417947812e-01 1.6174000656684046e-01 4.8627428011782681e-01  4.9715687024569327e-01 1.6161252453306915e-01 4.8740828047565415e-01  4.9737245411623671e-01 1.6149076178318250e-01 4.8855385231218151e-01  4.9759162195170525e-01 1.6137460616575303e-01 4.8971294052576042e-01  4.9781291891197949e-01 1.6126507692843162e-01 4.9087771201232178e-01  4.9803782298070104e-01 1.6116135397656284e-01 4.9205592212605520e-01  4.9826510754191977e-01 1.6106431236097890e-01 4.9324090745985516e-01  4.9849485025630458e-01 1.6097390807686401e-01 4.9443303807460681e-01  4.9872676186252768e-01 1.6089037316893817e-01 4.9563072172860817e-01  4.9896072387636420e-01 1.6081372326979318e-01 4.9683329687729577e-01  4.9919668941164264e-01 1.6074405743408524e-01 4.9804045337803776e-01  4.9943446326495977e-01 1.6068141873132999e-01 4.9925115551822136e-01  4.9967350012762668e-01 1.6062591937724860e-01 5.0046261003238024e-01  4.9991375272216171e-01 1.6057748378861914e-01 5.0167460121783203e-01  5.0015483222517920e-01 1.6053638654615257e-01 5.0288503397394158e-01  5.0039719181676134e-01 1.6050223735382022e-01 5.0409635472822223e-01  5.0063929667816864e-01 1.6047520226190332e-01 5.0530089195404759e-01  5.0088187176669885e-01 1.6045511439651364e-01 5.0650229508052824e-01  5.0112438574956641e-01 1.6044189441270448e-01 5.0769799937452476e-01  5.0136655339615732e-01 1.6043540565597364e-01 5.0888668420673366e-01  5.0160800645674786e-01 1.6043551756995966e-01 5.1006664150627168e-01  5.0184832379565703e-01 1.6044196457537999e-01 5.1123594085439172e-01  5.0208754391603971e-01 1.6045464179870236e-01 5.1239489219753698e-01  5.0232505517053427e-01 1.6047324801127866e-01 5.1354067837309436e-01  5.0256062079000052e-01 1.6049753260583011e-01 5.1467232402824181e-01  5.0279419276736936e-01 1.6052731744178153e-01 5.1578974420624901e-01  5.0302522939088889e-01 1.6056218822662491e-01 5.1689056797483401e-01  5.0325249245087345e-01 1.6060169196358060e-01 5.1796910354981429e-01  5.0347719162939053e-01 1.6064579905372015e-01 5.1903127621546608e-01  5.0369879507084592e-01 1.6069406876649497e-01 5.2007483537369015e-01  5.0391526587847590e-01 1.6074577471237628e-01 5.2109039089723563e-01  5.0412825599190902e-01 1.6080100588738558e-01 5.2208592167376966e-01  5.0433790383388111e-01 1.6085945635693000e-01 5.2306239869381221e-01  5.0454087720986618e-01 1.6091991498659020e-01 5.2400444057803686e-01  5.0473880134662608e-01 1.6098257948622174e-01 5.2491995174282968e-01  5.0493106694232304e-01 1.6104674699190807e-01 5.2580638208345976e-01  5.0511803501371288e-01 1.6111234401615715e-01 5.2666566536525050e-01  5.0529859514385478e-01 1.6117861592316568e-01 5.2749295083392633e-01  5.0547275702339167e-01 1.6124525517843244e-01 5.2828856772152755e-01  5.0564004622433101e-01 1.6131173468742580e-01 5.2905062663842817e-01  5.0580004146257962e-01 1.6137755830402339e-01 5.2977748843761618e-01  5.0595305025356563e-01 1.6144256608540800e-01 5.3047081501941251e-01  5.0609882478782409e-01 1.6150633855276694e-01 5.3112972676387316e-01  5.0623676970353160e-01 1.6156830512805373e-01 5.3175181433897978e-01  5.0636601251035351e-01 1.6162782056927089e-01 5.3233336899823225e-01  5.0648653513511377e-01 1.6168456451394747e-01 5.3287457917042735e-01  5.0659914516581495e-01 1.6173867458877231e-01 5.3337929629105896e-01  5.0670261234286151e-01 1.6178930291980245e-01 5.3384220624348566e-01  5.0679749129427443e-01 1.6183649270450604e-01 5.3426601537460183e-01  5.0695637888805190e-01 1.6191718987236453e-01 5.3497424468321741e-01  5.0703014615302167e-01 1.6195523123395347e-01 5.3530252110909904e-01  5.0708417282501361e-01 1.6198347675539312e-01 5.3554259327019949e-01  5.0713213485467457e-01 1.6200871923185470e-01 5.3575558569136661e-01  5.0717106201251183e-01 1.6202932868985795e-01 5.3592833727374145e-01  5.0719949242322493e-01 1.6204445716956087e-01 5.3605443665334362e-01  5.0721801355542806e-01 1.6205433505346989e-01 5.3613655724928200e-01  5.0722727465687423e-01 1.6205927738183110e-01 5.3617761342317993e-01  5.0722658695610789e-01 1.6205888987292447e-01 5.3617457116041878e-01  5.0721943587716378e-01 1.6205505534263021e-01 5.3614287751387912e-01  5.0719755594684279e-01 1.6204333387745390e-01 5.3604588054118918e-01  5.0716756121017725e-01 1.6202734886239112e-01 5.3591284589107102e-01  5.0712815188361193e-01 1.6200646075316250e-01 5.3573795932705692e-01  5.0708082274774213e-01 1.6198154127089839e-01 5.3552777532153761e-01  5.0702339515905948e-01 1.6195155251710333e-01 5.3527252440095952e-01  5.0695543035174973e-01 1.6191639997260646e-01 5.3497013291848472e-01  5.0687920668915942e-01 1.6187742880007308e-01 5.3463059435360616e-01  5.0679435043270404e-01 1.6183459283365806e-01 5.3425210453741012e-01  5.0670102144361884e-01 1.6178815996386872e-01 5.3383521578810489e-01  5.0659916313647946e-01 1.6173829728834518e-01 5.3337950368815590e-01  5.0648828596959439e-01 1.6168500197628746e-01 5.3288256735025530e-01  5.0636913146538320e-01 1.6162884208559353e-01 5.3234753627855402e-01  5.0624263917204304e-01 1.6157051523418342e-01 5.3177840755856676e-01  5.0610877017063072e-01 1.6151024799568578e-01 5.3117479804217105e-01  5.0596741746813034e-01 1.6144824240564176e-01 5.3053600037079507e-01  5.0581889378621081e-01 1.6138491551017853e-01 5.2986318959341561e-01  5.0566342194875658e-01 1.6132063698382296e-01 5.2915713295419886e-01  5.0550138777752873e-01 1.6125585901760606e-01 5.2841933832856025e-01  5.0533295092899699e-01 1.6119093205250920e-01 5.2765028268983771e-01  5.0515853541720024e-01 1.6112631380722856e-01 5.2685165653492461e-01  5.0497840525664062e-01 1.6106239447546974e-01 5.2602441911633524e-01  5.0479320737455480e-01 1.6099969840385051e-01 5.2517130596223094e-01  5.0460315527969246e-01 1.6093855930798462e-01 5.2429306421075084e-01  5.0440795190223620e-01 1.6087920159089009e-01 5.2338809488672844e-01  5.0420800807353217e-01 1.6082201600821380e-01 5.2245804436690224e-01  5.0400386734072078e-01 1.6076747860315146e-01 5.2150521008905804e-01  5.0379604440526515e-01 1.6071598492362343e-01 5.2053178239426667e-01  5.0358490216748941e-01 1.6066788298027709e-01 5.1953925734892159e-01  5.0337062706378022e-01 1.6062346286864099e-01 5.1852831297585922e-01  5.0315374856720252e-01 1.6058309643405519e-01 5.1750127850156091e-01  5.0293291475950985e-01 1.6054682399703377e-01 5.1645148932197882e-01  5.0271047418771264e-01 1.6051517766392465e-01 5.1539002420584790e-01  5.0248671232808850e-01 1.6048851967881689e-01 5.1431802932498794e-01  5.0226052504511787e-01 1.6046679271483885e-01 5.1323010891384269e-01  5.0203276340496594e-01 1.6045038503876238e-01 5.1213019681414207e-01  5.0180363569247532e-01 1.6043947825559449e-01 5.1101914905344370e-01  5.0157471594326242e-01 1.6043424104496554e-01 5.0990455817070146e-01  5.0134402097716568e-01 1.6043490635508109e-01 5.0877657573437240e-01  5.0111324266795310e-01 1.6044159537101507e-01 5.0764342078515812e-01  5.0088263405571487e-01 1.6045418770076686e-01 5.0650633752210539e-01  5.0065232083575861e-01 1.6047320075703128e-01 5.0536577096676161e-01  5.0042162161020076e-01 1.6049837821651963e-01 5.0421840322049483e-01  5.0019168300243444e-01 1.6052994005052898e-01 5.0306983485436918e-01  4.9996277261176225e-01 1.6056784022035947e-01 5.0192138519264062e-01  4.9973493457343654e-01 1.6061211913480977e-01 5.0077328264247589e-01  4.9950853767489584e-01 1.6066266497238438e-01 4.9962741665256960e-01  4.9905922720010010e-01 1.6078301256531866e-01 4.9733814732623977e-01  4.9883755324078238e-01 1.6085241591344643e-01 4.9620113318597259e-01  4.9861767241860394e-01 1.6092805552282419e-01 4.9506827230848377e-01  4.9839993417934142e-01 1.6100968045177513e-01 4.9394142254877421e-01  4.9818448761006290e-01 1.6109721888508405e-01 4.9282143877929441e-01  4.9797135575519191e-01 1.6119057646815810e-01 4.9170851574888175e-01  4.9776083967133627e-01 1.6128954542311194e-01 4.9060432070883442e-01  4.9755295200687288e-01 1.6139399061352963e-01 4.8950902350259928e-01  4.9734785664479336e-01 1.6150373118815664e-01 4.8842359849466371e-01  4.9714569427122240e-01 1.6161854485914581e-01 4.8734891247756285e-01  4.9694668204334591e-01 1.6173821057640506e-01 4.8628624435079482e-01  4.9675077483755042e-01 1.6186247626276698e-01 4.8523552143776250e-01  4.9655814554911526e-01 1.6199115677965756e-01 4.8419778861319002e-01  4.9636844862573010e-01 1.6212427153630407e-01 4.8317134836460590e-01  4.9618276192116906e-01 1.6226081832745390e-01 4.8216221802663278e-01  4.9599983513832946e-01 1.6240162892997639e-01 4.8116370404305364e-01  4.9582020182793296e-01 1.6254602619651939e-01 4.8017892132701689e-01  4.9564489217007651e-01 1.6269291491852142e-01 4.7921368300020334e-01  4.9547302405607874e-01 1.6284290533910090e-01 4.7826331712021419e-01  4.9530466967152781e-01 1.6299548621344723e-01 4.7732846018180358e-01  4.9513987819863814e-01 1.6315059042363594e-01 4.7640948420702495e-01  4.9497895315427598e-01 1.6330756628028023e-01 4.7550832123474995e-01  4.9482155742949480e-01 1.6346647975423798e-01 4.7462327245859187e-01  4.9466783392161745e-01 1.6362698122530978e-01 4.7375530927595888e-01  4.9451808001442260e-01 1.6378844573809279e-01 4.7290632550204992e-01  4.9437223887879383e-01 1.6395066840918765e-01 4.7207619551036545e-01  4.9422959265428784e-01 1.6411413785959375e-01 4.7126105178779470e-01  4.9409146930824693e-01 1.6427709852729308e-01 4.7046864564889773e-01  4.9395669427384481e-01 1.6444064079873724e-01 4.6969245722031622e-01  4.9382569920591579e-01 1.6460392793100728e-01 4.6893517068224450e-01  4.9369852694294941e-01 1.6476664387412587e-01 4.6819722875735004e-01  4.9357512833327888e-01 1.6492856526836344e-01 4.6747854042580900e-01  4.9345549324001980e-01 1.6508940988849927e-01 4.6677924630063988e-01  4.9333945325364703e-01 1.6524912906679071e-01 4.6609854957030239e-01  4.9322673415426355e-01 1.6540784162663530e-01 4.6543501804099335e-01  4.9311824534969201e-01 1.6556397320074503e-01 4.6479420140221189e-01  4.9301370421019530e-01 1.6571761790737274e-01 4.6417464035745243e-01  4.9291177819479765e-01 1.6587048837668369e-01 4.6356859366478631e-01  4.9281391667424596e-01 1.6602015849133864e-01 4.6298485363960817e-01  4.9272003689310390e-01 1.6616648367753833e-01 4.6242310897697869e-01  4.9262937811310631e-01 1.6631035395458246e-01 4.6187899348348344e-01  4.9254230222170875e-01 1.6645094339914457e-01 4.6135484140923116e-01  4.9245845797391025e-01 1.6658860450993335e-01 4.6084868804907086e-01  4.9237858709022558e-01 1.6672183292603990e-01 4.6036518452822178e-01  4.9230180297440757e-01 1.6685189432750358e-01 4.5989911294713037e-01  4.9222858545555437e-01 1.6697773149700135e-01 4.5945353849793868e-01  4.9215855902987510e-01 1.6709976626732023e-01 4.5902631417802575e-01  4.9209154051717890e-01 1.6721810420718020e-01 4.5861645950699287e-01  4.9202845922600075e-01 1.6733094270309057e-01 4.5822977870896153e-01  4.9196883820519227e-01 1.6743887171003219e-01 4.5786349967543893e-01  4.9191183661913812e-01 1.6754321087432247e-01 4.5751258369155257e-01  4.9185848681166316e-01 1.6764192863228705e-01 4.5718348194249187e-01  4.9180862123293734e-01 1.6773514260196543e-01 4.5687528589391535e-01  4.9176180471173686e-01 1.6782347189719465e-01 4.5658541848299589e-01  4.9171803983454432e-01 1.6790676473361804e-01 4.5631399448078180e-01  4.9167780229873409e-01 1.6798398146753696e-01 4.5606404716122967e-01  4.9250512051070638e-01 1.6651191277253460e-01 4.6113048163051634e-01  5.0263016931899507e-01 1.6050502679517897e-01 5.1500578290626287e-01  4.9209799666452153e-01 1.6720587802591294e-01 4.5865627430466710e-01  4.9939451528386569e-01 1.6069073592771896e-01 4.9904836322307183e-01  4.9166647712880462e-01 1.6800602753229896e-01 4.5599355398469288e-01  5.0501390241884747e-01 1.6107540220426045e-01 5.2618741878028286e-01  4.9333180703117380e-01 1.6525941271386346e-01 4.6605374179551645e-01  4.9547013091210185e-01 1.6284535021592911e-01 4.7824747264451206e-01  5.0690679737922306e-01 1.6189163531563569e-01 5.3475351746152022e-01  5.0196652716517043e-01 1.6044751042931821e-01 5.1180918354366189e-01  4.9340584209724830e-01 1.6515746135075715e-01 4.6648821556880554e-01  5.0487550987881435e-01 1.6102715784559563e-01 5.2555075897054127e-01  5.0315826093551186e-01 1.6058469153076071e-01 5.1752241767850837e-01  4.9416002712020507e-01 1.6419578296768897e-01 4.7086228669534175e-01  5.0027814230272127e-01 1.6051815833755018e-01 5.0350202664131161e-01  4.9174831871629304e-01 1.6784842735730060e-01 4.5650206716360597e-01  5.0603341933466550e-01 1.6147692976167183e-01 5.3083447924750715e-01  5.0682420590325772e-01 1.6184952527489954e-01 5.3438535722405112e-01  4.9151761381305170e-01 1.6829712876286446e-01 4.5506532942356759e-01  4.9521460599655304e-01 1.6307975543867817e-01 4.7682659038894987e-01  4.9884981581158477e-01 1.6084919936094172e-01 4.9626388895526580e-01  4.9646575559889572e-01 1.6205513548509018e-01 4.8369851619956972e-01  4.9145835057795517e-01 1.6841578930808576e-01 4.5469416327047607e-01  5.0716435734850596e-01 1.6202555029080323e-01 5.3589867497008881e-01  4.9750740346048450e-01 1.6141842965418024e-01 4.8926816709218163e-01  4.9745134192844920e-01 1.6144765485666157e-01 4.8897182561001817e-01  4.9146193382101883e-01 1.6840880027183922e-01 4.5471654377874965e-01  4.9206567892509107e-01 1.6726439145537839e-01 4.5845797205482408e-01  5.0122486453627535e-01 1.6043770267526120e-01 5.0819203030802795e-01  5.0601332733920190e-01 1.6146866781734467e-01 5.3074347542321498e-01  4.9414510079327595e-01 1.6421319010905763e-01 4.7077671502687435e-01  4.9256141696653932e-01 1.6641923331569822e-01 4.6147026085871978e-01  5.0719852127261267e-01 1.6204385029079671e-01 5.3605016202609435e-01  4.9664912496779123e-01 1.6193009378620510e-01 4.8468829377550809e-01  4.9829253935033252e-01 1.6105255295633508e-01 4.9338373100205191e-01  4.9152024635083630e-01 1.6829237765181390e-01 4.5508160811555243e-01  5.0400811664274181e-01 1.6076940544783402e-01 5.2152476126019154e-01  5.0368288693599372e-01 1.6068967498917211e-01 5.2000030117722096e-01  4.9183965891687603e-01 1.6767722526808337e-01 4.5706710480945040e-01  4.9287080836448321e-01 1.6593290811750502e-01 4.6332441749658515e-01  5.0027992036819313e-01 1.6051708417980021e-01 5.0351118988951737e-01  5.0652058999331484e-01 1.6170074975471693e-01 5.3302733439501582e-01  4.9475556360944478e-01 1.6353493553344114e-01 4.7425098686393169e-01  4.9163183389427789e-01 1.6807252277246831e-01 4.5577819262439417e-01  4.9371917980515223e-01 1.6473972885983540e-01 4.6831732520343677e-01  5.0710057424774357e-01 1.6199202408876343e-01 5.3561547224785921e-01  5.0554297445152929e-01 1.6127280924471948e-01 5.2860871041079305e-01  4.9603762075854246e-01 1.6237230765777927e-01 4.8137027903580143e-01  5.0125289565597275e-01 1.6043769956731821e-01 5.0832939692398404e-01  4.9226975283929075e-01 1.6690699427286598e-01 4.5970411196352423e-01  4.9232052754513950e-01 1.6681926761830776e-01 4.6001316373645423e-01  4.9458888428165310e-01 1.6371158289895632e-01 4.7330812815153528e-01  5.0641569978397671e-01 1.6165059516660080e-01 5.3255677459009920e-01  4.9572361326236752e-01 1.6262626140555728e-01 4.7964763721899262e-01  5.0191336762166827e-01 1.6044411329697542e-01 5.1155172271242844e-01  4.9287566857459308e-01 1.6592485687518030e-01 4.6335359591955755e-01  4.9376711064