<?xml version="1.0"?>
<VTKFile type="UnstructuredGrid"  version="0.1"  >
<UnstructuredGrid>
<Piece  NumberOfPoints="4940" NumberOfCells="9650">
<Points>
<DataArray  type="Float64"  NumberOfComponents="3"  format="ascii">500 250 0  0 250 0  250 500 0  250 0 0  256.8885856082646 499.9050767557906 0  263.7719401218049 499.6203791065173 0  270.6448364229772 499.1461232471188 0  277.5020553257866 498.4826693209355 0  284.3383895508592 497.6305211460281 0  291.1486476865662 496.5903258312597 0  297.9276581259182 495.3628732847843 0  304.6702729675493 493.9490956196674 0  311.3713719748657 492.3500664368026 0  318.0258664141369 490.5670000199653 0  324.6287029687753 488.6012504015818 0  331.1748675330201 486.4543103455647 0  337.6593890460416 484.1278102064655 0  344.0773432429536 481.6235166997244 0  350.4238564271474 478.9433315480048 0  356.694109139292 476.0892900492477 0  362.88333985546 473.0635595140469 0  368.9868485575419 469.8684376402048 0  375.0000003153078 466.5063507640667 0  380.9182288257928 462.9798520074548 0  386.7370398729688 459.2916193419558 0  392.4520147244077 455.444453565817 0  398.0588135356345 451.4412761437442 0  403.5531785622926 447.285127045646 0  408.9309374414144 442.9791624087773 0  414.1880064015299 438.5266521049243 0  419.3203932989752 433.9309773069245 0  424.324200661095 429.1956279150535 0  429.1956286596235 424.3241998957182 0  433.9309780058756 419.3203925397119 0  438.5266527445345 414.1880056671062 0  442.9791630130591 408.9309367076756 0  447.2851276060475 403.5531778422888 0  451.4412766621026 398.0588128303826 0  455.4444540361634 392.4520140460735 0  459.2916197786263 386.7370392045948 0  462.9798524073514 380.9182281752347 0  466.5063511234856 374.9999996927758 0  469.8684379657123 368.9868479560565 0  473.0635598144817 362.8833392617846 0  476.0892903190255 356.6941085676214 0  478.9433317963513 350.4238558609745 0  481.6235169154735 344.0773427117675 0  484.12781039012 337.6593885555221 0  486.4543105028062 331.1748670749914 0  488.601250531677 324.6287025528375 0  490.5670001317469 318.0258660188321 0  492.3500665291326 311.3713716102628 0  493.949095695951 304.6702726271575 0  495.3628733416623 297.9276578347343 0  496.5903258712341 291.1486474470129 0  497.6305211749058 284.3383893426084 0  498.4826693388848 277.502055163614 0  499.1461232580606 270.6448362909296 0  499.6203791109319 263.7719400417897 0  499.9050767571306 256.8885855596534 0  499.9050767559877 243.1114143988867 0  499.6203791069493 236.2280598860241 0  499.1461232485393 229.3551635941651 0  498.4826693235677 222.4979446979962 0  497.6305211491849 215.6616104719064 0  496.5903258357701 208.8513523404629 0  495.3628732906988 202.0723419043604 0  493.9490956264813 195.3297270628552 0  492.3500664487791 188.6286280724281 0  490.5670000344809 181.9741336371959 0  488.6012504175981 175.3712970824318 0  486.4543103623226 168.8251325157939 0  484.1278102222298 162.3406109960628 0  481.6235167152198 155.9226567951971 0  478.9433315621651 149.5761436051346 0  476.0892900516498 143.3058908657982 0  473.063559513628 137.1166601437124 0  469.8684376406648 131.0131514433083 0  466.5063507675389 124.9999996907064 0  462.9798520124137 119.0817711822745 0  459.2916193464549 113.2629601339176 0  455.4444535642773 107.5479852733717 0  451.4412761528674 101.9411864767781 0  447.2851270583545 96.44682145403524 0  442.9791624165781 91.06906256805769 0  438.5266521117469 85.81199360630404 0  433.9309773156125 80.67960671046254 0  429.1956279150353 75.67579933888632 0  424.3241998888952 70.80437133373906 0  419.3203925223282 66.06902197812161 0  414.1880056411937 61.47334723289828 0  408.9309366751728 57.0208369601728 0  403.5531778009394 52.71487236176898 0  398.058812796452 48.55872331295853 0  392.4520140187753 44.55554594490843 0  386.7370391799677 40.70838020528396 0  380.9182281475119 37.02014757560744 0  374.9999996718656 33.49364886444181 0  368.9868479340393 30.13156202237255 0  362.8833392380029 26.93644017348339 0  356.6941085456942 23.91070967062674 0  350.4238558420009 21.0566681953261 0  344.0773426899492 18.37648307566465 0  337.6593885328982 15.87218960140942 0  331.1748670549786 13.54568949032341 0  324.6287025315056 11.39874946165088 0  318.0258660010876 9.432999863235466 0  311.3713716017894 7.649933468721599 0  304.6702726190621 6.050904302234756 0  297.9276578269805 4.637126656823085 0  291.148647441857 3.409674127905504 0  284.3383893425031 2.369478825079682 0  277.502055159398 1.517330660648639 0  270.6448362875833 0.853876741662134 0  263.7719400401456 0.3796208889774277 0  256.8885855592052 0.09492324285704967 0  243.1114143979462 0.09492324403817065 0  236.2280598850882 0.3796208931023841 0  229.3551635938215 0.8538767514891958 0  222.4979446968584 1.517330676558146 0  215.6616104703111 2.369478851036291 0  208.8513523382973 3.409674164591252 0  202.0723419066374 4.637126708856528 0  195.3297270659513 6.050904372824903 0  188.628628074828 7.649933550613184 0  181.9741336377093 9.432999965373938 0  175.3712970793675 11.39874958336037 0  168.8251325057572 13.54568964112298 0  162.340610986655 15.87218978129263 0  155.9226567874317 18.37648328793418 0  149.576143602509 21.05666843898663 0  143.3058908718157 23.91070994551046 0  137.1166601505524 26.93644048291054 0  131.0131514451933 30.13156235831508 0  124.9999996848412 33.49364923584736 0  119.0817711715717 37.0201479941652 0  113.2629601211624 40.70838066187849 0  107.5479852622251 44.55554644345162 0  101.9411864693332 48.55872385260452 0  96.44682143286516 52.71487295812284 0  91.06906254351222 57.02083760363669 0  85.81199358272519 61.4733479087879 0  80.67960667988106 66.06902271253972 0  75.67579930062769 70.80437212218331 0  70.80437129287643 75.67580015310926 0  66.06902193673014 80.67960752263491 0  61.47334718684866 85.81199441168215 0  57.02083692524275 91.0690633672404 0  52.71487232786438 96.44682224262129 0  48.55872328070024 101.941187247437 0  44.55554591578033 107.5479860232332 0  40.7083801742321 113.2629608675606 0  37.02014754791168 119.0817718975441 0  33.49364883372994 125.000000381329 0  30.13156199866361 131.0131521097709 0  26.9364401549829 137.1166607985551 0  23.91070965524918 143.3058914868915 0  21.05666818346614 149.576144185037 0  18.37648306853811 155.9226573275967 0  15.8721895918909 162.3406114925245 0  13.54568948170046 168.8251329701392 0  11.39874945301878 175.3712974960928 0  9.432999857087736 181.9741340206533 0  7.649933466342702 188.6286284076045 0  6.050904301250966 195.3297273853278 0  4.637126656808988 202.0723421730917 0  3.409674127767772 208.8513525589684 0  2.369478824521138 215.6616106615248 0  1.517330660909465 222.4979448382452 0  0.8538767414496533 229.355163714981 0  0.3796208887135322 236.2280599646376 0  0.09492324266324204 243.1114144478261 0  0.0949232442452228 256.8885856095658 0  0.3796208935834784 263.7719401236316 0  0.8538767530323526 270.6448364248016 0  1.517330679476544 277.5020553295092 0  2.369478854618649 284.3383895555228 0  3.409674170191892 291.1486476952655 0  4.6371267162381 297.9276581311522 0  6.050904381420935 304.6702729724059 0  7.649933562385399 311.3713719716595 0  9.43299997979841 318.0258664133013 0  11.3987495994252 324.6287029719946 0  13.54568965885832 331.174867545904 0  15.87218979367188 337.6593890464085 0  18.37648329843151 344.0773432384132 0  21.05666844777872 350.423856417535 0  23.91070995156048 356.6941091410045 0  26.93644048988043 362.8833398632205 0  30.13156235982007 368.9868485575877 0  33.49364924138357 375.0000003247478 0  37.0201480006036 380.9182288389023 0  40.70838066758398 386.7370398875706 0  44.55554644477201 392.4520147396792 0  48.55872386086904 398.0588135419111 0  52.71487295981296 403.5531785693063 0  57.02083760525949 408.9309374584583 0  61.47334790862246 414.1880064170849 0  66.06902271205095 419.320393319588 0  70.80437211216579 424.3242006890749 0  75.67580013809859 429.195628692521 0  80.6796075127923 433.930978054209 0  85.81199439754931 438.5266528008431 0  91.06906334717917 442.9791630582355 0  96.44682221438322 447.2851276501571 0  101.9411872243843 451.441276702356 0  107.5479859945825 455.4444540643537 0  113.2629608446994 459.2916198108319 0  119.0817718768376 462.9798524393601 0  125.0000003647644 466.5063511567065 0  131.0131521012763 469.8684379967393 0  137.1166607840049 473.0635598376539 0  143.3058914748804 476.0892903390826 0  149.5761441732679 478.9433318113714 0  155.9226573130112 481.6235169255377 0  162.3406114779862 484.1278104026658 0  168.8251329570439 486.4543105138039 0  175.3712974805475 488.601250542119 0  181.9741340135204 490.5670001408953 0  188.6286284005059 492.3500665318597 0  195.3297273788229 493.9490956972913 0  202.0723421640089 495.3628733414168 0  208.8513525529672 496.5903258712308 0  215.6616106544547 497.6305211744985 0  222.4979448327038 498.4826693384772 0  229.3551637102845 499.1461232581612 0  236.2280599621369 499.6203791111485 0  243.1114144470173 499.9050767573145 0  155.2373389820306 474.8197567317462 0  25.36256300907667 153.9152755065208 0  432.3709625126712 412.6214396304305 0  6.013151705810699 246.637913163471 0  246.6379131630491 493.986848294322 0  338.6995838441862 22.68244767887072 0  477.3175523131281 338.6995838660569 0  493.9868482700757 246.6379131399102 0  246.6201155078769 6.218451882810491 0  417.6179310263282 72.7156044707053 0  102.2232990934413 445.0100869616822 0  63.66330858966404 92.20354579482142 0  391.3105220491464 50.73522820883105 0  72.79295043967942 418.0702734974704 0  448.290574428537 108.25674339002 0  402.4604651193511 440.7462829841712 0  97.55317348421397 59.11376320116034 0  136.7376477664901 33.58246472647134 0  363.3288394375288 465.6947312928271 0  44.0678766556007 381.0860953771871 0  469.6905266180034 142.3890690100806 0  22.68244791668644 338.6995843487432 0  338.699584349159 477.317552078365 0  173.389488083762 18.6681884918202 0  483.4809734778481 179.7121987795732 0  13.50237455842738 306.4709525540879 0  305.9825168523021 487.24416992
[...]
<PointData  Vectors="f_12"> 
<DataArray  type="Float64"  Name="f_12"  NumberOfComponents="3" format="ascii">6.1778365682087966e-01 2.5988229604746871e-01 1.0287955101984534e+00  6.2656419070792935e-01 2.9441497989553572e-01 1.0259818687361191e+00  6.0596931685577249e-01 2.1944870050013762e-01 1.0184025006748534e+00  6.3824905644058194e-01 3.4758187950905706e-01 1.0057423288269964e+00  6.0583642291020123e-01 2.1902959648828701e-01 1.0182008735691750e+00  6.0572091439453124e-01 2.1866602789186365e-01 1.0180239563418292e+00  6.0560881654786514e-01 2.1831370945783612e-01 1.0178510004142252e+00  6.0551179108363162e-01 2.1800916871209261e-01 1.0177003748739450e+00  6.0542475883386981e-01 2.1773635263995011e-01 1.0175644088122462e+00  6.0534901381704520e-01 2.1749918718458597e-01 1.0174454112374218e+00  6.0528430436795544e-01 2.1729675568382040e-01 1.0173433250685426e+00  6.0522936301604568e-01 2.1712502182520510e-01 1.0172563122540197e+00  6.0518560616968786e-01 2.1698833937251225e-01 1.0171867892391009e+00  6.0515406612434897e-01 2.1688986894627774e-01 1.0171365598945268e+00  6.0514383615864498e-01 2.1685797867763887e-01 1.0171201897172863e+00  6.0512640221173308e-01 2.1680351420442415e-01 1.0170924526624929e+00  6.0514616086111106e-01 2.1686523227838819e-01 1.0171238898850807e+00  6.0516249107396525e-01 2.1691619377776036e-01 1.0171499362732910e+00  6.0519483866430546e-01 2.1701718866246597e-01 1.0172014585307603e+00  6.0523868097188704e-01 2.1715413875329184e-01 1.0172710975927228e+00  6.0529259596372631e-01 2.1732269076130142e-01 1.0173563495123277e+00  6.0536756336370923e-01 2.1755728046828640e-01 1.0174744954123864e+00  6.0545648785777717e-01 2.1783580081884338e-01 1.0176140495121848e+00  6.0554910171636867e-01 2.1812624553348173e-01 1.0177584000615305e+00  6.0565657225889069e-01 2.1846371001146966e-01 1.0179249265805570e+00  6.0578272410164768e-01 2.1886054215499198e-01 1.0181187535708514e+00  6.0592919489591346e-01 2.1932214105508621e-01 1.0183418003559344e+00  6.0607831814911739e-01 2.1979299627278512e-01 1.0185666901554582e+00  6.0624026771605599e-01 2.2030546252837593e-01 1.0188082650661807e+00  6.0642602231948872e-01 2.2089466670225971e-01 1.0190820475256046e+00  6.0661743799242485e-01 2.2150333353532764e-01 1.0193605810628712e+00  6.0682491878965550e-01 2.2216496407075181e-01 1.0196580055191509e+00  6.0704666008719133e-01 2.2287404400243616e-01 1.0199712191368528e+00  6.0727699593751561e-01 2.2361288533120519e-01 1.0202910981317539e+00  6.0752942601233983e-01 2.2442533887531729e-01 1.0206351551474162e+00  6.0779237888917570e-01 2.2527452312582061e-01 1.0209867910337971e+00  6.0806097873409737e-01 2.2614508399114649e-01 1.0213384077925474e+00  6.0834908869533377e-01 2.2708247103500198e-01 1.0217070719977517e+00  6.0865631017673949e-01 2.2808607007650969e-01 1.0220907109434783e+00  6.0896981460478750e-01 2.2911445994862159e-01 1.0224720029400260e+00  6.0928883912111165e-01 2.3016544530760075e-01 1.0228493026276984e+00  6.0962533647226835e-01 2.3127897209146467e-01 1.0232354648938111e+00  6.0997838191718712e-01 2.3245265111943339e-01 1.0236277972033778e+00  6.1033807027433984e-01 2.3365420213308744e-01 1.0240138146117685e+00  6.1071044796368446e-01 2.3490434320213957e-01 1.0243987547621467e+00  6.1109328354294556e-01 2.3619612784299993e-01 1.0247789446797670e+00  6.1148488794883082e-01 2.3752443551349800e-01 1.0251513773605869e+00  6.1188381354401566e-01 2.3888469704070006e-01 1.0255140025589093e+00  6.1229923836033850e-01 2.4030927684199749e-01 1.0258724280723717e+00  6.1272011437117424e-01 2.4176046184405134e-01 1.0262168352033396e+00  6.1314820966453476e-01 2.4324520375509523e-01 1.0265466741760711e+00  6.1358438889869504e-01 2.4476665181481214e-01 1.0268621600316568e+00  6.1402643185782346e-01 2.4631778337534016e-01 1.0271601141100031e+00  6.1447888405642981e-01 2.4791500347456449e-01 1.0274424648033997e+00  6.1493619443441438e-01 2.4953930722700995e-01 1.0277043633110243e+00  6.1539714587264482e-01 2.5118670114944214e-01 1.0279444301195537e+00  6.1586560661643108e-01 2.5287149545644838e-01 1.0281633957508574e+00  6.1633812404290411e-01 2.5458159248397827e-01 1.0283590773210323e+00  6.1681359374503841e-01 2.5631353026227666e-01 1.0285293273414697e+00  6.1728740590519726e-01 2.5804919315468222e-01 1.0286765816822891e+00  6.1826676793865876e-01 2.6167618031806161e-01 1.0288876309524788e+00  6.1875385067472510e-01 2.6349727172821336e-01 1.0289522905786717e+00  6.1924091992521402e-01 2.6533040248390216e-01 1.0289887391496417e+00  6.1973338562363556e-01 2.6719635759222166e-01 1.0289957364282172e+00  6.2022485496430535e-01 2.6907081483383050e-01 1.0289745037692930e+00  6.2071672759217100e-01 2.7095940143763297e-01 1.0289233150206991e+00  6.2120818808998723e-01 2.7285915158434265e-01 1.0288427461218144e+00  6.2169922368030961e-01 2.7477002038309900e-01 1.0287322881281586e+00  6.2218864350637171e-01 2.7668736161059970e-01 1.0285924616060995e+00  6.2267600243984988e-01 2.7860941524240379e-01 1.0284235294204138e+00  6.2316276368561641e-01 2.8054206039143675e-01 1.0282245148280671e+00  6.2364502922424925e-01 2.8246959693929924e-01 1.0279979117567786e+00  6.2412620976139632e-01 2.8440549713669366e-01 1.0277422649200003e+00  6.2460386072076368e-01 2.8634003064946489e-01 1.0274587469595333e+00  6.2507794980337539e-01 2.8827280656297727e-01 1.0271479864855477e+00  6.2554782382656304e-01 2.9020097175294263e-01 1.0268110120529816e+00  6.2601344742745191e-01 2.9212416462894247e-01 1.0264482412578735e+00  6.2647469465932137e-01 2.9404164310728104e-01 1.0260604267986322e+00  6.2693119859171520e-01 2.9595161150465643e-01 1.0256484909325629e+00  6.2738208641877347e-01 2.9785009036435833e-01 1.0252139962649331e+00  6.2782850467971008e-01 2.9974161197037641e-01 1.0247565135799896e+00  6.2826744467240214e-01 3.0161330793916447e-01 1.0242796332059037e+00  6.2870199529708515e-01 3.0347764031722152e-01 1.0237815362596117e+00  6.2912849319367592e-01 3.0531865950795145e-01 1.0232669617514238e+00  6.2954887940684945e-01 3.0714429533210846e-01 1.0227346660111061e+00  6.2996251405406845e-01 3.0895135704216792e-01 1.0221864434533103e+00  6.3036918168682021e-01 3.1073848751572380e-01 1.0216235564617726e+00  6.3076852576406262e-01 3.1250365593548557e-01 1.0210476449653703e+00  6.3115958868616440e-01 3.1424213856688749e-01 1.0204610731140982e+00  6.3154327503408536e-01 3.1595742926180748e-01 1.0198639300398031e+00  6.3191865898102240e-01 3.1764493915131059e-01 1.0192585626714605e+00  6.3228574402424309e-01 3.1930412634409794e-01 1.0186462913409602e+00  6.3264565462124012e-01 3.2093964692713917e-01 1.0180262913908409e+00  6.3299577169391663e-01 3.2253895186010773e-01 1.0174044901775112e+00  6.3333438578542200e-01 3.2409365386106015e-01 1.0167852799193482e+00  6.3366711308144286e-01 3.2562902612626454e-01 1.0161595217047301e+00  6.3399128999811261e-01 3.2713217507027564e-01 1.0155337005744773e+00  6.3430208014969169e-01 3.2858020455535131e-01 1.0149181896130943e+00  6.3460642416459190e-01 3.3000485305056870e-01 1.0143005005678873e+00  6.3490359007149566e-01 3.3140200221089600e-01 1.0136838366726344e+00  6.3518497604541946e-01 3.3273096141467973e-01 1.0130864649080198e+00  6.3545822165489319e-01 3.3402692311423748e-01 1.0124944711234813e+00  6.3572059800259639e-01 3.3527645953802770e-01 1.0119144477712516e+00  6.3597371164629635e-01 3.3648658155784988e-01 1.0113445641847301e+00  6.3621576521388301e-01 3.3764828808664987e-01 1.0107896584481550e+00  6.3644756102599120e-01 3.3876483877485286e-01 1.0102492739124354e+00  6.3666807480049248e-01 3.3983077780329590e-01 1.0097269282173134e+00  6.3687677205875048e-01 3.4084297068726466e-01 1.0092251214114398e+00  6.3707567421269506e-01 3.4181072837058440e-01 1.0087401159401539e+00  6.3726446547391968e-01 3.4273209513284669e-01 1.0082735229732469e+00  6.3744114337258828e-01 3.4359675044787863e-01 1.0078315804034905e+00  6.3760496093366137e-01 3.4440069013815794e-01 1.0074169447697987e+00  6.3775613067866743e-01 3.4514440462659990e-01 1.0070303213150860e+00  6.3789790430304327e-01 3.4584349543006715e-01 1.0066642243844033e+00  6.3802663009851512e-01 3.4647964566453066e-01 1.0063287091223339e+00  6.3814442957283424e-01 3.4706289087347786e-01 1.0060192894725097e+00  6.3833679864661652e-01 3.4801784158184340e-01 1.0055086104239217e+00  6.3843544016892173e-01 3.4850832222354555e-01 1.0052447720310491e+00  6.3849514789627393e-01 3.4880595369740847e-01 1.0050835746253013e+00  6.3855306344407381e-01 3.4909474602211010e-01 1.0049269958103915e+00  6.3860049141162190e-01 3.4933140925304479e-01 1.0047983777961220e+00  6.3863400809049953e-01 3.4949878943166651e-01 1.0047072289510239e+00  6.3865422881904266e-01 3.4959981807124202e-01 1.0046521269682052e+00  6.3866436504933544e-01 3.4965046341229900e-01 1.0046244946369323e+00  6.3866167218251035e-01 3.4963701374656686e-01 1.0046318190812749e+00  6.3865761534180954e-01 3.4961666664476254e-01 1.0046429985978651e+00  6.3862581429913234e-01 3.4945785192746376e-01 1.0047295302127088e+00  6.3858709410493653e-01 3.4926455209545260e-01 1.0048347240915798e+00  6.3853698110735402e-01 3.4901453154658213e-01 1.0049705599835304e+00  6.3847940134613690e-01 3.4872747583677227e-01 1.0051260612805188e+00  6.3840827351719720e-01 3.4837326848823791e-01 1.0053173345289543e+00  6.3832142908260880e-01 3.4794136040577250e-01 1.0055497132364573e+00  6.3822595443582741e-01 3.4746721232350597e-01 1.0058036578375926e+00  6.3811961012667273e-01 3.4693991810484232e-01 1.0060846526173906e+00  6.3800266231749903e-01 3.4636108051994274e-01 1.0063913900404717e+00  6.3787458362026295e-01 3.4572836997283379e-01 1.0067246809896129e+00  6.3773383317116605e-01 3.4503460431401561e-01 1.0070875915757098e+00  6.3758117696265626e-01 3.4428386546605683e-01 1.0074774435966374e+00  6.3741941351780163e-01 3.4349030108585066e-01 1.0078862039213818e+00  6.3724779493484540e-01 3.4265059266418513e-01 1.0083150291516876e+00  6.3706526805658947e-01 3.4175999059753903e-01 1.0087656531293712e+00  6.3687226381401962e-01 3.4082103234810873e-01 1.0092360549843062e+00  6.3666861326107926e-01 3.3983334310484703e-01 1.0097256459047144e+00  6.3645491197209791e-01 3.3880026637403410e-01 1.0102319973431493e+00  6.3623085481943020e-01 3.3772080482167977e-01 1.0107547568332744e+00  6.3599686550729273e-01 3.3659747214496238e-01 1.0112918905486663e+00  6.3575302132411660e-01 3.3543113312236428e-01 1.0118421100618875e+00  6.3550052780232091e-01 3.3422800126004087e-01 1.0124016772099800e+00  6.3523911137443045e-01 3.3298723389935847e-01 1.0129701563560822e+00  6.3496861949112349e-01 3.3170862552302627e-01 1.0135467976818984e+00  6.3468715115749141e-01 3.3038366380079787e-01 1.0141344972888520e+00  6.3439681999529085e-01 3.2902290065155376e-01 1.0147275079956484e+00  6.3409788432406944e-01 3.2762799883855281e-01 1.0153242800745246e+00  6.3379085705417015e-01 3.2620182327608832e-01 1.0159226867998465e+00  6.3347591784616908e-01 3.2474570216241044e-01 1.0165212543890321e+00  6.3315384773286565e-01 3.2326362451259377e-01 1.0171177252527672e+00  6.3281971503181489e-01 3.2173365509488555e-01 1.0177193908687356e+00  6.3247896211002186e-01 3.2018097701222070e-01 1.0183158912762349e+00  6.3213365817267841e-01 3.1861553943385190e-01 1.0189024545822305e+00  6.3177836420396760e-01 3.1701309139441547e-01 1.0194871861042225e+00  6.3141473271912940e-01 3.1538159282939499e-01 1.0200664336155081e+00  6.3104365101697912e-01 3.1372560132324151e-01 1.0206373074785355e+00  6.3066980939502537e-01 3.1206617507200246e-01 1.0211922877600572e+00  6.3028375356588995e-01 3.1036205858598587e-01 1.0217438357534416e+00  6.2989350395781207e-01 3.0864901695971408e-01 1.0222796499660938e+00  6.2949681343986474e-01 3.0691744491266343e-01 1.0228018506803240e+00  6.2909575384060579e-01 3.0517682152228270e-01 1.0233073984670449e+00  6.2868641802434544e-01 3.0341049897985606e-01 1.0237997352640069e+00  6.2827132502678862e-01 3.0162973333143051e-01 1.0242753890421452e+00  6.2785162776401859e-01 2.9983988421961999e-01 1.0247318801815184e+00  6.2742714808923494e-01 2.9804039394036641e-01 1.0251689406828226e+00  6.2699827293353372e-01 2.9623313918140731e-01 1.0255855173824979e+00  6.2612550878755469e-01 2.9258874154808806e-01 1.0263566428410535e+00  6.2568385430113527e-01 2.9076140878872780e-01 1.0267078949171102e+00  6.2523833891204394e-01 2.8892940741048423e-01 1.0270362845432146e+00  6.2478973597665188e-01 2.8709615616097400e-01 1.0273403717389771e+00  6.2433834877445327e-01 2.8526295787609351e-01 1.0276199476228896e+00  6.2388429511419230e-01 2.8343043943995411e-01 1.0278745043986575e+00  6.2342818380778497e-01 2.8160111395838161e-01 1.0281035869852235e+00  6.2297033437712024e-01 2.7977633354931414e-01 1.0283067622922972e+00  6.2251110586590108e-01 2.7795752249029970e-01 1.0284839164308339e+00  6.2205094822982532e-01 2.7614649700649946e-01 1.0286347218376595e+00  6.2159041001507676e-01 2.7434532791976390e-01 1.0287593176595604e+00  6.2113066298885855e-01 2.7255852540439673e-01 1.0288572427810898e+00  6.2067039171468319e-01 2.7078088625436514e-01 1.0289291857153526e+00  6.2021029353810053e-01 2.6901495196809455e-01 1.0289753340461363e+00  6.1975346775717655e-01 2.6727246977043484e-01 1.0289956148554797e+00  6.1929434092812197e-01 2.6553211223375339e-01 1.0289905643771589e+00  6.1883719031433704e-01 2.6380987705472370e-01 1.0289606391107011e+00  6.1838659345454239e-01 2.6212288394792504e-01 1.0289061856684665e+00  6.1793690925069156e-01 2.6044942084093742e-01 1.0288284085098660e+00  6.1749081584539411e-01 2.5879938471882097e-01 1.0287273112667528e+00  6.1704776681986051e-01 2.5717040091180976e-01 1.0286040275034227e+00  6.1660885866477211e-01 2.5556623912982007e-01 1.0284593135476643e+00  6.1617369472062422e-01 2.5398511113486577e-01 1.0282937532958412e+00  6.1574230051127010e-01 2.5242682660097060e-01 1.0281081172177469e+00  6.1531883282719002e-01 2.5090593036610376e-01 1.0279052371379329e+00  6.1489984593067915e-01 2.4940974551556569e-01 1.0276841486106003e+00  6.1448473036860085e-01 2.4793551304987899e-01 1.0274459447567525e+00  6.1408004111232362e-01 2.4650636322043529e-01 1.0271946725103001e+00  6.1367852825753066e-01 2.4509606311304519e-01 1.0269274120188683e+00  6.1328437283073278e-01 2.4371903791523566e-01 1.0266473524506219e+00  6.1289837173527184e-01 2.4237751599864985e-01 1.0263565522250433e+00  6.1251960315007015e-01 2.4106793201421500e-01 1.0260550899631615e+00  6.1214877904628129e-01 2.3979227276875956e-01 1.0257446620395305e+00  6.1178469164688032e-01 2.3854598677351582e-01 1.0254252033406290e+00  6.1142597505194773e-01 2.3732405398522335e-01 1.0250962795739360e+00  6.1108128598675637e-01 2.3615542245779475e-01 1.0247671557915525e+00  6.1074610345643143e-01 2.3502427638135778e-01 1.0244346722580291e+00  6.1041159667216660e-01 2.3390047848940360e-01 1.0240907820392740e+00  6.1009039586608516e-01 2.3282612438219391e-01 1.0237493552810866e+00  6.0978114930776350e-01 2.3179618622512699e-01 1.0234101765965324e+00  6.0947833860888700e-01 2.3079183000916650e-01 1.0230681706866431e+00  6.0918589317191585e-01 2.2982574426181024e-01 1.0227286008705949e+00  6.0889970149736161e-01 2.2888399818474545e-01 1.0223875921698227e+00  6.0862897470430843e-01 2.2799651703535467e-01 1.0220569227788661e+00  6.0836333411852583e-01 2.2712884313827730e-01 1.0217250940292768e+00  6.0810950920667406e-01 2.2630266261612633e-01 1.0214011302036361e+00  6.0786398898060112e-01 2.2550628305710010e-01 1.0210810893606828e+00  6.0762569787507725e-01 2.2473583619097920e-01 1.0207645568955257e+00  6.0740267400136472e-01 2.2401694793489299e-01 1.0204632361956270e+00  6.0719062897665199e-01 2.2333556044090283e-01 1.0201716639873422e+00  6.0698253801763580e-01 2.2266872042652738e-01 1.0198811176110436e+00  6.0678807390663358e-01 2.2204727950512951e-01 1.0196055027531483e+00  6.0660599037675966e-01 2.2146686024512899e-01 1.0193440329209935e+00  6.0643220141344745e-01 2.2091428646836264e-01 1.0190910423838639e+00  6.0626778041716067e-01 2.2039260222439266e-01 1.0188490889288997e+00  6.0611676345797572e-01 2.1991455646172814e-01 1.0186242001712069e+00  6.0910495985089474e-01 2.2955916256276829e-01 1.0226330503505376e+00  6.3234021057866951e-01 3.1955107779518865e-01 1.0185536416592051e+00  6.0748849128599181e-01 2.2429335571726325e-01 1.0205802187606721e+00  6.2677585655215773e-01 2.9530018980996925e-01 1.0257918161181825e+00  6.0612572964145894e-01 2.1994298830497766e-01 1.0186377698387825e+00  6.3580711404377399e-01 3.3568970008218774e-01 1.0117207231009562e+00  6.1174510429231921e-01 2.3841103839114072e-01 1.0253897979957993e+00  6.1805128726064107e-01 2.6087351569653899e-01 1.0288524674938651e+00  6.3824559718289164e-01 3.4756482388455917e-01 1.0057515942866964e+00  6.3133397578366202e-01 3.1502066196403911e-01 1.0201922243423147e+00  6.1202342902786477e-01 2.3936262929792460e-01 1.0256361879470246e+00  6.3558936238916797e-01 3.3465091416617720e-01 1.0122058350383412e+00  6.3317627831169421e-01 3.2336687348724963e-01 1.0170764367628473e+00  6.1431093434149098e-01 2.4732086085773214e-01 1.0273403193098400e+00  6.2848022581003904e-01 3.0252477546026479e-01 1.0240390795892031e+00  6.0622984435224547e-01 2.2027252739717063e-01 1.0187929542520742e+00  6.3712486736623819e-01 3.4205063739860597e-01 1.0086190713212639e+00  6.3812845619866709e-01 3.4698391204936946e-01 1.0060612481711704e+00  6.0542408407483150e-01 2.1773418589454632e-01 1.0175638787461054e+00  6.1727034645844669e-01 2.5798770730214515e-01 1.0286685886894225e+00  6.2579174977876284e-01 2.9120699809971690e-01 1.0266244303898708e+00  6.2046011398686529e-01 2.6997215271714886e-01 1.0289542800125580e+00  6.0523568672561767e-01 2.1714487663010165e-01 1.0172664801286824e+00  6.3855050192359308e-01 3.4908206797831870e-01 1.0049340212005158e+00  6.2298161391503315e-01 2.7982131989351011e-01 1.0283021662287510e+00  6.2275285052704799e-01 2.7891361979360041e-01 1.0283939012787149e+00  6.0530405544709898e-01 2.1735864700213783e-01 1.0173746276654652e+00  6.0758883927975460e-01 2.2461687448245091e-01 1.0207155038443558e+00  6.3007187215302318e-01 3.0943096557276983e-01 1.0220371337936798e+00  6.3712462712034079e-01 3.4204952292780355e-01 1.0086196290493019e+00  6.1430022144325291e-01 2.4728311273363499e-01 1.0273339640463874e+00  6.0913443404696332e-01 2.2965635683620519e-01 1.0226679503210721e+00  6.3860403273096145e-01 3.4934926193850141e-01 1.0047886525970280e+00  6.2101314928473372e-01 2.7210381063148231e-01 1.0288781015229327e+00  6.2456779572318000e-01 2.8619341052926583e-01 1.0274811259418224e+00  6.0555169041488144e-01 2.1813448853910969e-01 1.0177624865925390e+00  6.3441568996525299e-01 3.2911146847427486e-01 1.0146890130989090e+00  6.3391540301676486e-01 3.2677966590811874e-01 1.0156816176873282e+00  6.0677112491659768e-01 2.2199328795278175e-01 1.0195814354704045e+00  6.1032247556475738e-01 2.3360177230060983e-01 1.0239977905623197e+00  6.2842234004935360e-01 3.0227635472655140e-01 1.0241052758507414e+00  6.3776851654827471e-01 3.4520558346381547e-01 1.0069984109706593e+00  6.1608856511826360e-01 2.5367724936656799e-01 1.0282586261569249e+00  6.0583684538382465e-01 2.1903110546079274e-01 1.0182016443878201e+00  6.1299406977434923e-01 2.4270964706965417e-01 1.0264304252031040e+00  6.3848833407144490e-01 3.4877217600129673e-01 1.0051018381525338e+00  6.3651412034073274e-01 3.3908632622263274e-01 1.0100923747715245e+00  6.1952055102242465e-01 2.6638813732073918e-01 1.0289970647846907e+00  6.3016537650169102e-01 3.0984170564848462e-01 1.0219083377017439e+00  6.0830467097573959e-01 2.2693784373663786e-01 1.0216506412744741e+00  6.0829850765285731e-01 2.2691755138510680e-01 1.0216435795336010e+00  6.1555143107863652e-01 2.5174024634025616e-01 1.0280193604569619e+00  6.3761173812505378e-01 3.4443418266775316e-01 1.0073995848229760e+00  6.1860690706234478e-01 2.6294631700145221e-01 1.0289362480957847e+00  6.3120798786110810e-01 3.1445808936205116e-01 1.0203865782275845e+00  6.1022356467025562e-01 2.3327111742821163e-01 1.0238925443886213e+00  6.1314110032