<?xml version="1.0"?>
<VTKFile type="UnstructuredGrid"  version="0.1"  >
<UnstructuredGrid>
<Piece  NumberOfPoints="4940" NumberOfCells="9650">
<Points>
<DataArray  type="Float64"  NumberOfComponents="3"  format="ascii">500 250 0  0 250 0  250 500 0  250 0 0  256.8885856082646 499.9050767557906 0  263.7719401218049 499.6203791065173 0  270.6448364229772 499.1461232471188 0  277.5020553257866 498.4826693209355 0  284.3383895508592 497.6305211460281 0  291.1486476865662 496.5903258312597 0  297.9276581259182 495.3628732847843 0  304.6702729675493 493.9490956196674 0  311.3713719748657 492.3500664368026 0  318.0258664141369 490.5670000199653 0  324.6287029687753 488.6012504015818 0  331.1748675330201 486.4543103455647 0  337.6593890460416 484.1278102064655 0  344.0773432429536 481.6235166997244 0  350.4238564271474 478.9433315480048 0  356.694109139292 476.0892900492477 0  362.88333985546 473.0635595140469 0  368.9868485575419 469.8684376402048 0  375.0000003153078 466.5063507640667 0  380.9182288257928 462.9798520074548 0  386.7370398729688 459.2916193419558 0  392.4520147244077 455.444453565817 0  398.0588135356345 451.4412761437442 0  403.5531785622926 447.285127045646 0  408.9309374414144 442.9791624087773 0  414.1880064015299 438.5266521049243 0  419.3203932989752 433.9309773069245 0  424.324200661095 429.1956279150535 0  429.1956286596235 424.3241998957182 0  433.9309780058756 419.3203925397119 0  438.5266527445345 414.1880056671062 0  442.9791630130591 408.9309367076756 0  447.2851276060475 403.5531778422888 0  451.4412766621026 398.0588128303826 0  455.4444540361634 392.4520140460735 0  459.2916197786263 386.7370392045948 0  462.9798524073514 380.9182281752347 0  466.5063511234856 374.9999996927758 0  469.8684379657123 368.9868479560565 0  473.0635598144817 362.8833392617846 0  476.0892903190255 356.6941085676214 0  478.9433317963513 350.4238558609745 0  481.6235169154735 344.0773427117675 0  484.12781039012 337.6593885555221 0  486.4543105028062 331.1748670749914 0  488.601250531677 324.6287025528375 0  490.5670001317469 318.0258660188321 0  492.3500665291326 311.3713716102628 0  493.949095695951 304.6702726271575 0  495.3628733416623 297.9276578347343 0  496.5903258712341 291.1486474470129 0  497.6305211749058 284.3383893426084 0  498.4826693388848 277.502055163614 0  499.1461232580606 270.6448362909296 0  499.6203791109319 263.7719400417897 0  499.9050767571306 256.8885855596534 0  499.9050767559877 243.1114143988867 0  499.6203791069493 236.2280598860241 0  499.1461232485393 229.3551635941651 0  498.4826693235677 222.4979446979962 0  497.6305211491849 215.6616104719064 0  496.5903258357701 208.8513523404629 0  495.3628732906988 202.0723419043604 0  493.9490956264813 195.3297270628552 0  492.3500664487791 188.6286280724281 0  490.5670000344809 181.9741336371959 0  488.6012504175981 175.3712970824318 0  486.4543103623226 168.8251325157939 0  484.1278102222298 162.3406109960628 0  481.6235167152198 155.9226567951971 0  478.9433315621651 149.5761436051346 0  476.0892900516498 143.3058908657982 0  473.063559513628 137.1166601437124 0  469.8684376406648 131.0131514433083 0  466.5063507675389 124.9999996907064 0  462.9798520124137 119.0817711822745 0  459.2916193464549 113.2629601339176 0  455.4444535642773 107.5479852733717 0  451.4412761528674 101.9411864767781 0  447.2851270583545 96.44682145403524 0  442.9791624165781 91.06906256805769 0  438.5266521117469 85.81199360630404 0  433.9309773156125 80.67960671046254 0  429.1956279150353 75.67579933888632 0  424.3241998888952 70.80437133373906 0  419.3203925223282 66.06902197812161 0  414.1880056411937 61.47334723289828 0  408.9309366751728 57.0208369601728 0  403.5531778009394 52.71487236176898 0  398.058812796452 48.55872331295853 0  392.4520140187753 44.55554594490843 0  386.7370391799677 40.70838020528396 0  380.9182281475119 37.02014757560744 0  374.9999996718656 33.49364886444181 0  368.9868479340393 30.13156202237255 0  362.8833392380029 26.93644017348339 0  356.6941085456942 23.91070967062674 0  350.4238558420009 21.0566681953261 0  344.0773426899492 18.37648307566465 0  337.6593885328982 15.87218960140942 0  331.1748670549786 13.54568949032341 0  324.6287025315056 11.39874946165088 0  318.0258660010876 9.432999863235466 0  311.3713716017894 7.649933468721599 0  304.6702726190621 6.050904302234756 0  297.9276578269805 4.637126656823085 0  291.148647441857 3.409674127905504 0  284.3383893425031 2.369478825079682 0  277.502055159398 1.517330660648639 0  270.6448362875833 0.853876741662134 0  263.7719400401456 0.3796208889774277 0  256.8885855592052 0.09492324285704967 0  243.1114143979462 0.09492324403817065 0  236.2280598850882 0.3796208931023841 0  229.3551635938215 0.8538767514891958 0  222.4979446968584 1.517330676558146 0  215.6616104703111 2.369478851036291 0  208.8513523382973 3.409674164591252 0  202.0723419066374 4.637126708856528 0  195.3297270659513 6.050904372824903 0  188.628628074828 7.649933550613184 0  181.9741336377093 9.432999965373938 0  175.3712970793675 11.39874958336037 0  168.8251325057572 13.54568964112298 0  162.340610986655 15.87218978129263 0  155.9226567874317 18.37648328793418 0  149.576143602509 21.05666843898663 0  143.3058908718157 23.91070994551046 0  137.1166601505524 26.93644048291054 0  131.0131514451933 30.13156235831508 0  124.9999996848412 33.49364923584736 0  119.0817711715717 37.0201479941652 0  113.2629601211624 40.70838066187849 0  107.5479852622251 44.55554644345162 0  101.9411864693332 48.55872385260452 0  96.44682143286516 52.71487295812284 0  91.06906254351222 57.02083760363669 0  85.81199358272519 61.4733479087879 0  80.67960667988106 66.06902271253972 0  75.67579930062769 70.80437212218331 0  70.80437129287643 75.67580015310926 0  66.06902193673014 80.67960752263491 0  61.47334718684866 85.81199441168215 0  57.02083692524275 91.0690633672404 0  52.71487232786438 96.44682224262129 0  48.55872328070024 101.941187247437 0  44.55554591578033 107.5479860232332 0  40.7083801742321 113.2629608675606 0  37.02014754791168 119.0817718975441 0  33.49364883372994 125.000000381329 0  30.13156199866361 131.0131521097709 0  26.9364401549829 137.1166607985551 0  23.91070965524918 143.3058914868915 0  21.05666818346614 149.576144185037 0  18.37648306853811 155.9226573275967 0  15.8721895918909 162.3406114925245 0  13.54568948170046 168.8251329701392 0  11.39874945301878 175.3712974960928 0  9.432999857087736 181.9741340206533 0  7.649933466342702 188.6286284076045 0  6.050904301250966 195.3297273853278 0  4.637126656808988 202.0723421730917 0  3.409674127767772 208.8513525589684 0  2.369478824521138 215.6616106615248 0  1.517330660909465 222.4979448382452 0  0.8538767414496533 229.355163714981 0  0.3796208887135322 236.2280599646376 0  0.09492324266324204 243.1114144478261 0  0.0949232442452228 256.8885856095658 0  0.3796208935834784 263.7719401236316 0  0.8538767530323526 270.6448364248016 0  1.517330679476544 277.5020553295092 0  2.369478854618649 284.3383895555228 0  3.409674170191892 291.1486476952655 0  4.6371267162381 297.9276581311522 0  6.050904381420935 304.6702729724059 0  7.649933562385399 311.3713719716595 0  9.43299997979841 318.0258664133013 0  11.3987495994252 324.6287029719946 0  13.54568965885832 331.174867545904 0  15.87218979367188 337.6593890464085 0  18.37648329843151 344.0773432384132 0  21.05666844777872 350.423856417535 0  23.91070995156048 356.6941091410045 0  26.93644048988043 362.8833398632205 0  30.13156235982007 368.9868485575877 0  33.49364924138357 375.0000003247478 0  37.0201480006036 380.9182288389023 0  40.70838066758398 386.7370398875706 0  44.55554644477201 392.4520147396792 0  48.55872386086904 398.0588135419111 0  52.71487295981296 403.5531785693063 0  57.02083760525949 408.9309374584583 0  61.47334790862246 414.1880064170849 0  66.06902271205095 419.320393319588 0  70.80437211216579 424.3242006890749 0  75.67580013809859 429.195628692521 0  80.6796075127923 433.930978054209 0  85.81199439754931 438.5266528008431 0  91.06906334717917 442.9791630582355 0  96.44682221438322 447.2851276501571 0  101.9411872243843 451.441276702356 0  107.5479859945825 455.4444540643537 0  113.2629608446994 459.2916198108319 0  119.0817718768376 462.9798524393601 0  125.0000003647644 466.5063511567065 0  131.0131521012763 469.8684379967393 0  137.1166607840049 473.0635598376539 0  143.3058914748804 476.0892903390826 0  149.5761441732679 478.9433318113714 0  155.9226573130112 481.6235169255377 0  162.3406114779862 484.1278104026658 0  168.8251329570439 486.4543105138039 0  175.3712974805475 488.601250542119 0  181.9741340135204 490.5670001408953 0  188.6286284005059 492.3500665318597 0  195.3297273788229 493.9490956972913 0  202.0723421640089 495.3628733414168 0  208.8513525529672 496.5903258712308 0  215.6616106544547 497.6305211744985 0  222.4979448327038 498.4826693384772 0  229.3551637102845 499.1461232581612 0  236.2280599621369 499.6203791111485 0  243.1114144470173 499.9050767573145 0  155.2373389820306 474.8197567317462 0  25.36256300907667 153.9152755065208 0  432.3709625126712 412.6214396304305 0  6.013151705810699 246.637913163471 0  246.6379131630491 493.986848294322 0  338.6995838441862 22.68244767887072 0  477.3175523131281 338.6995838660569 0  493.9868482700757 246.6379131399102 0  246.6201155078769 6.218451882810491 0  417.6179310263282 72.7156044707053 0  102.2232990934413 445.0100869616822 0  63.66330858966404 92.20354579482142 0  391.3105220491464 50.73522820883105 0  72.79295043967942 418.0702734974704 0  448.290574428537 108.25674339002 0  402.4604651193511 440.7462829841712 0  97.55317348421397 59.11376320116034 0  136.7376477664901 33.58246472647134 0  363.3288394375288 465.6947312928271 0  44.0678766556007 381.0860953771871 0  469.6905266180034 142.3890690100806 0  22.68244791668644 338.6995843487432 0  338.699584349159 477.317552078365 0  173.389488083762 18.6681884918202 0  483.4809734778481 179.7121987795732 0  13.50237455842738 306.4709525540879 0  305.9825168523021 487.24416992
[...]
<PointData  Vectors="f_12"> 
<DataArray  type="Float64"  Name="f_12"  NumberOfComponents="3" format="ascii">4.8484230881355128e-01 2.3855890753777398e-01 3.8078595050491393e-01  4.9495481446937245e-01 3.4821394330865973e-01 3.6927330537345388e-01  4.8477526645646124e-01 2.0678016972656882e-01 3.9832341452435205e-01  4.9576738217577576e-01 1.6371345204232826e-01 4.7949104103314111e-01  4.8479434422344553e-01 2.0631786316289180e-01 3.9868396837807735e-01  4.8481238151216655e-01 2.0589737134784461e-01 3.9901550557423832e-01  4.8483025299896759e-01 2.0549489206549926e-01 3.9933604990951344e-01  4.8484705074568984e-01 2.0512798041330904e-01 3.9963092304197606e-01  4.8486306625298548e-01 2.0478833810572089e-01 3.9990634435005085e-01  4.8487814213230357e-01 2.0447666248616622e-01 4.0016108075447321e-01  4.8489222304412810e-01 2.0419228915117374e-01 4.0039522346904644e-01  4.8490533389182094e-01 2.0393317702865130e-01 4.0061005327132065e-01  4.8491731523638343e-01 2.0370094514801096e-01 4.0080381592067799e-01  4.8492803763102837e-01 2.0349671994869681e-01 4.0097520208282322e-01  4.8493671862051402e-01 2.0333386541486012e-01 4.0111255428382531e-01  4.8494567361013058e-01 2.0316792284727433e-01 4.0125311746109987e-01  4.8495116595657045e-01 2.0306765627550410e-01 4.0133847432351349e-01  4.8495656249611097e-01 2.0296992229107635e-01 4.0142193007003479e-01  4.8496022582924075e-01 2.0290453668857508e-01 4.0147806443687384e-01  4.8496256304687868e-01 2.0286355805068068e-01 4.0151349489780164e-01  4.8496368372898735e-01 2.0284470718516054e-01 4.0153007658392670e-01  4.8496256760234285e-01 2.0286668619237505e-01 4.0151191595445213e-01  4.8495984815020243e-01 2.0291794734984411e-01 4.0146884923956794e-01  4.8495650420619973e-01 2.0298080215432340e-01 4.0141598644731041e-01  4.8495154993878409e-01 2.0307364137232853e-01 4.0133778522991975e-01  4.8494461529735211e-01 2.0320423795460846e-01 4.0122791910552452e-01  4.8493558751060417e-01 2.0337547904304351e-01 4.0108416380495310e-01  4.8492607402038357e-01 2.0355819561037930e-01 4.0093141637863772e-01  4.8491521433951090e-01 2.0376973798724207e-01 4.0075537308365644e-01  4.8490206490868448e-01 2.0402999178706563e-01 4.0053986279887233e-01  4.8488827080804864e-01 2.0430866138901560e-01 4.0031061870270263e-01  4.8487298969093923e-01 2.0462464818374010e-01 4.0005255341061063e-01  4.8485643428685260e-01 2.0497565363082604e-01 3.9976808774717404e-01  4.8483916729596777e-01 2.0535241986399819e-01 3.9946539269841197e-01  4.8482007859695991e-01 2.0578269139314148e-01 3.9912299354531389e-01  4.8480027250879276e-01 2.0624572057047225e-01 3.9875840489091752e-01  4.8478026706680721e-01 2.0673233136516916e-01 3.9837950772152730e-01  4.8475897737637902e-01 2.0727409189922535e-01 3.9796281717725757e-01  4.8473658055434277e-01 2.0787417990654572e-01 3.9750748441820222e-01  4.8471430395788589e-01 2.0850575822479817e-01 3.9703507748099887e-01  4.8469236517909681e-01 2.0916799263300292e-01 3.9654721588118719e-01  4.8466999747775402e-01 2.0989279003203967e-01 3.9602189145273359e-01  4.8464748104103161e-01 2.1068202136524580e-01 3.9545951176473326e-01  4.8462583352344818e-01 2.1151551148972497e-01 3.9487682761275750e-01  4.8460488023551535e-01 2.1241318241942650e-01 3.9426168090886216e-01  4.8458508146229073e-01 2.1337183610606097e-01 3.9361828074354971e-01  4.8456690965870253e-01 2.1439148004345243e-01 3.9294911664670273e-01  4.8455080136354689e-01 2.1547237529813562e-01 3.9225636747062420e-01  4.8453689726847221e-01 2.1665120076150943e-01 3.9152004202640117e-01  4.8452604061765553e-01 2.1789649511250067e-01 3.9076232748270329e-01  4.8451893806675866e-01 2.1922296145676409e-01 3.8997865780733543e-01  4.8451594534747849e-01 2.2063781407955826e-01 3.8916677468346544e-01  4.8451804942339266e-01 2.2214104128012002e-01 3.8833190409354307e-01  4.8452601932031814e-01 2.2376104576488975e-01 3.8746201120684182e-01  4.8454077116326327e-01 2.2548268016633150e-01 3.8657039458254761e-01  4.8456326477801881e-01 2.2730816676691484e-01 3.8566083632777082e-01  4.8459484550212323e-01 2.2926735096279954e-01 3.8472340945150157e-01  4.8463664933740558e-01 2.3135387918061839e-01 3.8376767603697104e-01  4.8468959530719424e-01 2.3357008474534813e-01 3.8279669554957607e-01  4.8475347915348005e-01 2.3588956096239941e-01 3.8182479991666024e-01  4.8493823568546474e-01 2.4122819364398809e-01 3.7978215647522429e-01  4.8505590796312736e-01 2.4411379942083714e-01 3.7876976264198037e-01  4.8519451079058762e-01 2.4718123217834240e-01 3.7776293885963735e-01  4.8535872039244887e-01 2.5050090120501528e-01 3.7674496403524704e-01  4.8555007566415892e-01 2.5403812993480662e-01 3.7574386503768709e-01  4.8577087648759754e-01 2.5781489029477794e-01 3.7475708583762213e-01  4.8602666506672276e-01 2.6185742256415157e-01 3.7379858466629634e-01  4.8632050127917614e-01 2.6618532245396415e-01 3.7287088758621589e-01  4.8665612591061530e-01 2.7080463854974474e-01 3.7198853128457893e-01  4.8703788338535536e-01 2.7573052166835865e-01 3.7116337173809627e-01  4.8747529571940523e-01 2.8103919676152550e-01 3.7039753719489477e-01  4.8796801289837166e-01 2.8667483074835570e-01 3.6971883108741949e-01  4.8852574263190801e-01 2.9270741579309645e-01 3.6913198819665466e-01  4.8915780946667886e-01 2.9917803211852501e-01 3.6865637388799233e-01  4.8987016174084042e-01 3.0609353277543289e-01 3.6831103931767994e-01  4.9067031896033414e-01 3.1346450683110350e-01 3.6812081281731063e-01  4.9156723892287862e-01 3.2131780296343870e-01 3.6810466024478050e-01  4.9257170457879668e-01 3.2967627128766824e-01 3.6829189692454090e-01  4.9369655555618047e-01 3.3857573927696721e-01 3.6871061043993186e-01  4.9495118678686928e-01 3.4801474066088384e-01 3.6938934866883461e-01  4.9633536940285888e-01 3.5791751607646882e-01 3.7035033854060240e-01  4.9788786016309916e-01 3.6844307072657623e-01 3.7166143125880041e-01  4.9960256032732453e-01 3.7945751257315774e-01 3.7334001990477050e-01  5.0149259516218914e-01 3.9093924534888352e-01 3.7542517767563793e-01  5.0356823964847830e-01 4.0282106725296402e-01 3.7796065971244264e-01  5.0583184564839279e-01 4.1498838185721432e-01 3.8097806432177617e-01  5.0828249687238602e-01 4.2730629275380777e-01 3.8450220465317514e-01  5.1091017307261688e-01 4.3959400273066929e-01 3.8854866320995524e-01  5.1369703569390168e-01 4.5165838277557419e-01 3.9310155269777974e-01  5.1661045646841341e-01 4.6324845200735154e-01 3.9813991289750161e-01  5.1959949946131823e-01 4.7411200821034344e-01 4.0357742557275883e-01  5.2259957995897288e-01 4.8401065942690336e-01 4.0929680807359675e-01  5.2552012279585558e-01 4.9270448519316490e-01 4.1511946669941091e-01  5.2829885305043900e-01 5.0013369373210015e-01 4.2088592695499988e-01  5.3083260724502512e-01 5.0620522558593306e-01 4.2634553542145726e-01  5.3298175613464627e-01 5.1082662648315713e-01 4.3113967817466692e-01  5.3467750550065751e-01 5.1411916539599767e-01 4.3503751339832225e-01  5.3585060777055438e-01 5.1617834356428105e-01 4.3782664448482372e-01  5.3633730711181915e-01 5.1690212293871773e-01 4.3907051407730940e-01  5.3607429430272813e-01 5.1625589231489355e-01 4.3860585502870192e-01  5.3505126006092563e-01 5.1410730315555941e-01 4.3646692785327040e-01  5.3297254084387635e-01 5.0957484562214539e-01 4.3209592890986193e-01  5.2983475734460872e-01 5.0192472666687493e-01 4.2570914963127687e-01  5.2543848404609983e-01 4.8953329252923194e-01 4.1722447569217230e-01  5.1977942450585990e-01 4.7048090888807315e-01 4.0712941223707583e-01  5.1296604353815889e-01 4.4267260270673509e-01 3.9624457300437316e-01  5.0551374515418790e-01 4.0548734069745307e-01 3.8614323373625659e-01  4.9826134460544369e-01 3.6097764512481606e-01 3.7883273006601959e-01  4.9215831801676274e-01 3.1380218670958504e-01 3.7644165988188594e-01  4.8797056258624061e-01 2.7021872179525985e-01 3.8007712056246029e-01  4.8594229229823988e-01 2.3456187767961284e-01 3.8966165006844905e-01  4.8585221597612477e-01 2.0843616510019530e-01 4.0379039713379805e-01  4.8707215960168782e-01 1.9044409516494165e-01 4.2017209358004887e-01  4.8904767205876176e-01 1.7858775977141486e-01 4.3701473222501530e-01  4.9131912422475499e-01 1.7109273841101016e-01 4.5285680378089577e-01  4.9362022974533054e-01 1.6645772997672759e-01 4.6714933343131299e-01  4.9763328400868079e-01 1.6227596242444142e-01 4.8960681650752613e-01  4.9944922583521573e-01 1.6127359401753769e-01 4.9915513826220226e-01  5.0078282343128500e-01 1.6101531810318323e-01 5.0582824414000327e-01  5.0189747667601825e-01 1.6093160115891739e-01 5.1131341141428488e-01  5.0275377820561518e-01 1.6095838822273448e-01 5.1545250681711063e-01  5.0332803525810044e-01 1.6102504529456044e-01 5.1819094299927482e-01  5.0363818492905676e-01 1.6107486329649126e-01 5.1965854760686114e-01  5.0369783239172472e-01 1.6108661522694598e-01 5.1993961707044412e-01  5.0350008015358538e-01 1.6105449893043275e-01 5.1900473549282156e-01  5.0311050277966418e-01 1.6100040566978502e-01 5.1715588374445842e-01  5.0237916239820746e-01 1.6094147426127617e-01 5.1364870364644810e-01  5.0142486110524709e-01 1.6095995439297206e-01 5.0899825536551146e-01  5.0023298763194946e-01 1.6113581339409211e-01 5.0307433982168903e-01  4.9883511164864219e-01 1.6157864537322067e-01 4.9594637853920803e-01  4.9719584663009264e-01 1.6248955314121291e-01 4.8730763150142015e-01  4.9533153261924351e-01 1.6413560944195571e-01 4.7706338408449450e-01  4.9332965680232965e-01 1.6683843805976306e-01 4.6545057425843117e-01  4.9125553140214545e-01 1.7105070077064261e-01 4.5253081880223506e-01  4.8922581930388487e-01 1.7741402678925677e-01 4.3854478413666353e-01  4.8741500228943907e-01 1.8672982544097053e-01 4.2396542905946077e-01  4.8607882757575138e-01 2.0010670326311980e-01 4.0954034028835046e-01  4.8549710178031130e-01 2.1824713901958026e-01 3.9636185538110263e-01  4.8593787654675774e-01 2.4149678059447913e-01 3.8561095867519735e-01  4.8756225626190725e-01 2.6963853631920048e-01 3.7811761949975586e-01  4.9036258275474359e-01 3.0147911602972938e-01 3.7422819686869879e-01  4.9413269645196312e-01 3.3476274397679784e-01 3.7380512181749903e-01  4.9852154825801431e-01 3.6700725463870537e-01 3.7618504525077295e-01  5.0311470970597094e-01 3.9600773182751009e-01 3.8048648945974806e-01  5.0757275398894564e-01 4.2063132754936899e-01 3.8582640468107526e-01  5.1163442355760091e-01 4.4052063928830665e-01 3.9145297434382537e-01  5.1515356378370614e-01 4.5598269289060384e-01 3.9682401580496302e-01  5.1803397315625777e-01 4.6751576037508702e-01 4.0151395518685462e-01  5.2027936649673845e-01 4.7584231912354785e-01 4.0534319108403066e-01  5.2188966202582088e-01 4.8146321941788606e-01 4.0817479882051283e-01  5.2297754346142344e-01 4.8511267835275634e-01 4.1011881633652808e-01  5.2351745407837191e-01 4.8692210005370173e-01 4.1105949006368109e-01  5.2356346514932994e-01 4.8716567487060924e-01 4.1106711769577076e-01  5.2316339805210843e-01 4.8600999579444693e-01 4.1022548041638368e-01  5.2236796560281840e-01 4.8356929779059882e-01 4.0863864578899983e-01  5.2123488856703792e-01 4.7993633259993712e-01 4.0643960322830130e-01  5.1985883590931070e-01 4.7531760923365562e-01 4.0383480577632980e-01  5.1828303526347108e-01 4.6975775462020863e-01 4.0092608914068145e-01  5.1653278025568661e-01 4.6324409271089584e-01 3.9778845595931706e-01  5.1470424842637641e-01 4.5605788940544689e-01 3.9461100009071376e-01  5.1283615690012596e-01 4.4829812871410374e-01 3.9147624762700356e-01  5.1095841343496196e-01 4.4006500128240295e-01 3.8844143984090290e-01  5.0908922114141686e-01 4.3141912316837533e-01 3.8554447714609968e-01  5.0730152711481191e-01 4.2270256499748116e-01 3.8290002402886097e-01  5.0556590817236091e-01 4.1381077278686645e-01 3.8046119593823807e-01  5.0392089534989770e-01 4.0497766529557860e-01 3.7826488458607221e-01  5.0235329026993403e-01 3.9614829111342476e-01 3.7631046795336970e-01  5.0088624920165248e-01 3.8752067030993192e-01 3.7459521467325269e-01  4.9952152657335386e-01 3.7913920011231422e-01 3.7312471771396583e-01  4.9824816181114689e-01 3.7098946584483444e-01 3.7186946093484929e-01  4.9706363784323854e-01 3.6309632990569529e-01 3.7081917503896311e-01  4.9596807990751923e-01 3.5550740176007761e-01 3.6995827867822706e-01  4.9402023006291867e-01 3.4122943829127356e-01 3.6874863635762423e-01  4.9316082767161568e-01 3.3456327348582576e-01 3.6837066839246907e-01  4.9236693036938811e-01 3.2817163400858507e-01 3.6812639132726999e-01  4.9163821977729677e-01 3.2208664182846869e-01 3.6800081008537039e-01  4.9096902518098712e-01 3.1628864047031136e-01 3.6798411005249859e-01  4.9035461653191714e-01 3.1076520078061126e-01 3.6806449225643995e-01  4.8979111708368511e-01 3.0550650360871995e-01 3.6823256593365189e-01  4.8927479868380924e-01 3.0050376590246208e-01 3.6847806244592451e-01  4.8880184691014184e-01 2.9574239885793990e-01 3.6879341794545401e-01  4.8836899256176708e-01 2.9121204979831161e-01 3.6917041707240711e-01  4.8797345613194681e-01 2.8690275089503681e-01 3.6960323547724772e-01  4.8761264613179522e-01 2.8281196097878381e-01 3.7008151322523497e-01  4.8728189158551422e-01 2.7890089270274893e-01 3.7060550111289209e-01  4.8697971655348615e-01 2.7517186070595917e-01 3.7116757344084000e-01  4.8670586431666713e-01 2.7164010931921628e-01 3.7175885319375140e-01  4.8645419074557567e-01 2.6824025068022261e-01 3.7238597584160105e-01  4.8622558174420311e-01 2.6500210275125308e-01 3.7303734752621620e-01  4.8602019185493994e-01 2.6194718604365752e-01 3.7370203673924202e-01  4.8583338510672353e-01 2.5901880144839895e-01 3.7438950980935992e-01  4.8566401968314971e-01 2.5622238009924747e-01 3.7509051331850496e-01  4.8551117467026339e-01 2.5355044787937209e-01 3.7580547967677835e-01  4.8537369102807643e-01 2.5100067673792448e-01 3.7652987799537185e-01  4.8524995575916802e-01 2.4855937827929994e-01 3.7726336692163015e-01  4.8513908525009464e-01 2.4622133935523519e-01 3.7800464406791834e-01  4.8504075485557163e-01 2.4399831216810927e-01 3.7874555388098635e-01  4.8495339894286205e-01 2.4186888948890806e-01 3.7949024520098878e-01  4.8487577308947238e-01 2.3982089258838224e-01 3.8023929538633944e-01  4.8480835039726317e-01 2.3788034709004399e-01 3.8098055140357207e-01  4.8474920856006043e-01 2.3600949021833667e-01 3.8172550532742855e-01  4.8469807415586041e-01 2.3421897916655096e-01 3.8246668842451259e-01  4.8465445226305787e-01 2.3250808844488291e-01 3.8320209616854162e-01  4.8461765019549419e-01 2.3086946541639944e-01 3.8393228024799908e-01  4.8458712299665330e-01 2.2930074605197814e-01 3.8465579346219558e-01  4.8456231472012656e-01 2.2779471971153328e-01 3.8537384142163661e-01  4.8454270443152653e-01 2.2634363345080702e-01 3.8608810042304209e-01  4.8452809958573700e-01 2.2496896335458552e-01 3.8678547334618574e-01  4.8451794456883690e-01 2.2365675059501372e-01 3.8747096596163760e-01  4.8451169984970593e-01 2.2237836018150428e-01 3.8815790684935009e-01  4.8450917563828427e-01 2.2116542158611807e-01 3.8882747784522959e-01  4.8450999418470647e-01 2.2001261700578137e-01 3.8948072772740067e-01  4.8451379267588507e-01 2.1890263762084070e-01 3.9012550520944522e-01  4.8452023569414199e-01 2.1784278681404642e-01 3.9075592344523019e-01  4.8452916577664840e-01 2.1682332848225244e-01 3.9137669747046122e-01  4.8454003405792728e-01 2.1586044818071465e-01 3.9197575506317295e-01  4.8455290714021182e-01 2.1493278667144206e-01 3.9256556930503300e-01  4.8456731491311067e-01 2.1405097967372663e-01 3.9313762402830654e-01  4.8458317108315446e-01 2.1320619971029120e-01 3.9369644317763564e-01  4.8460032656918223e-01 2.1239474391795313e-01 3.9424334565275004e-01  4.8461823677979315e-01 2.1163291153450850e-01 3.9476631549972890e-01  4.8463682973201139e-01 2.1091086464328920e-01 3.9527046264202198e-01  4.8465631243575330e-01 2.1021323141984322e-01 3.9576556817479930e-01  4.8467601379637365e-01 2.0955803413114998e-01 3.9623793482245695e-01  4.8469583048469306e-01 2.0894136645313485e-01 3.9668923724449739e-01  4.8471583528521117e-01 2.0835479553486752e-01 3.9712457994439487e-01  4.8473586274568414e-01 2.0779828219907234e-01 3.9754314222653353e-01  4.8475548610477831e-01 2.0727963794443960e-01 3.9793825208114814e-01  4.8452329066368632e-01 2.1745252076193405e-01 3.9099151969765539e-01  5.1787364485566600e-01 4.6825864642565140e-01 4.0019077003054665e-01  4.8482246945033275e-01 2.0572482367084372e-01 3.9916794808349032e-01  4.9550430551007746e-01 3.5220017939561604e-01 3.6963209925039203e-01  4.8475992549861363e-01 2.0716350757333574e-01 3.9802684191284216e-01  5.2902108457107011e-01 4.9922226135273740e-01 4.2450619647709553e-01  4.8455566877787148e-01 2.1511948624643365e-01 3.9248026285679172e-01  4.8489467073355158e-01 2.4008806990735448e-01 3.8019714493221202e-01  4.9649751840532552e-01 1.6300390548402993e-01 4.8354827170622150e-01  5.1530110279533126e-01 4.5814220309309389e-01 3.9585253658954306e-01  4.8457707626116503e-01 2.2872239300607652e-01 3.8492871362277364e-01  5.1762747017446509e-01 4.6559398171907956e-01 4.0108347183040460e-01  5.3008117720166337e-01 5.0445718303013065e-01 4.2472311705371224e-01  4.8484441563070729e-01 2.3894045977665557e-01 3.8057150515794419e-01  4.9882726311019909e-01 3.7454765711617782e-01 3.7255732834513872e-01  4.8491436595346238e-01 2.0378351506040807e-01 4.0074296318117131e-01  4.8936564367038426e-01 2.8997345082149983e-01 3.7581615040060229e-01  4.9200969024607316e-01 1.6937500021958010e-01 4.5732595665503456e-01  4.8495538161751861e-01 2.0299473442252655e-01 4.0140188706186258e-01  4.8558658661116999e-01 2.5488634721650760e-01 3.7544280562164450e-01  4.9116942017528409e-01 3.1787855486319677e-01 3.6809100973050923e-01  4.8714648774110514e-01 2.7725360757388173e-01 3.7084460998977997e-01  4.8494709270179531e-01 2.0314209502714484e-01 4.0127506746775660e-01  5.0152473080890891e-01 1.6094098453851399e-01 5.0949724153428633e-01  4.8732600540065385e-01 2.7926150290136326e-01 3.7064063958948068e-01  4.8906938969162905e-01 2.9845604336476494e-01 3.6860455983400681e-01  4.8490293552705033e-01 2.0397921926172025e-01 4.0057140572843303e-01  4.8460605944385415e-01 2.1213787675163823e-01 3.9441792670586029e-01  5.0651276213507390e-01 4.1870658811164335e-01 3.8177927701808057e-01  4.9052644511605470e-01 2.9730579994502454e-01 3.7774260907219775e-01  4.8452223716488568e-01 2.2315620159063052e-01 3.8778234971730263e-01  4.8470234761922315e-01 2.0885919344097378e-01 3.9677322629106226e-01  5.0330783129826817e-01 1.6101726951656037e-01 5.1809670124256224e-01  4.8593170539234404e-01 2.6038782252585985e-01 3.7413707221351272e-01  4.9133522159823467e-01 3.1948587525579303e-01 3.6798172961354136e-01  4.8484888293236489e-01 2.0508764207468835e-01 3.9966315126570734e-01  5.3653615171546520e-01 5.1725678502165806e-01 4.3952092164103235e-01  5.2374767745632533e-01 4.8773367825508668e-01 4.1141887412329775e-01  4.8468190004904038e-01 2.0936864224350815e-01 3.9637536204208723e-01  4.8451022771712254e-01 2.2194423844421768e-01 3.8839442880705161e-01  5.0013255942912349e-01 3.8293202280369115e-01 3.7376979795393217e-01  4.8766553453250311e-01 1.8626453082728531e-01 4.2559194270175327e-01  4.8461469292578679e-01 2.3030479390833042e-01 3.8424310584526844e-01  4.8493787510441999e-01 2.0332704788740649e-01 4.0112311626755509e-01  4.8452070097220368e-01 2.1877816149369525e-01 3.9023793993776873e-01  5.0124031527100910e-01 1.6096647631152960e-01 5.0809180593307279e-01  5.1085691363708585e-01 4.3193862136457456e-01 3.9383476039769033e-01  4.8529225502775203e-01 2.4919773766087516e-01 3.7713415700831188e-01  5.0724844868500896e-01 4.2220015274259703e-01 3.8299113345469477e-01  4.8455792688936172e-01 2.1460827993857404e-01 3.9277444841151538e-01  4.8476183766388531e-01 2.0719460332871351e-01 3.9802233494003975e-01  4.8509216056681870e-01 2.4518211134743575e-01 3.7834592680616508e-01  4.8567127442525854e-01 2.1190113257129423e-01 4.0084849283646151e-01  4.8612032750247203e-01 2.6345690837073754e-01 3.7336674339618020e-01  5.1201719326061967e-01 4.4474707190385715e-01 3.9014476514140073e-01  4.8463197743817688e-01 2.1126547630348080e-01 3.9504957339456592e-01  4.8467961509