<?xml version="1.0"?>
<VTKFile type="UnstructuredGrid"  version="0.1"  >
<UnstructuredGrid>
<Piece  NumberOfPoints="4940" NumberOfCells="9650">
<Points>
<DataArray  type="Float64"  NumberOfComponents="3"  format="ascii">500 250 0  0 250 0  250 500 0  250 0 0  256.8885856082646 499.9050767557906 0  263.7719401218049 499.6203791065173 0  270.6448364229772 499.1461232471188 0  277.5020553257866 498.4826693209355 0  284.3383895508592 497.6305211460281 0  291.1486476865662 496.5903258312597 0  297.9276581259182 495.3628732847843 0  304.6702729675493 493.9490956196674 0  311.3713719748657 492.3500664368026 0  318.0258664141369 490.5670000199653 0  324.6287029687753 488.6012504015818 0  331.1748675330201 486.4543103455647 0  337.6593890460416 484.1278102064655 0  344.0773432429536 481.6235166997244 0  350.4238564271474 478.9433315480048 0  356.694109139292 476.0892900492477 0  362.88333985546 473.0635595140469 0  368.9868485575419 469.8684376402048 0  375.0000003153078 466.5063507640667 0  380.9182288257928 462.9798520074548 0  386.7370398729688 459.2916193419558 0  392.4520147244077 455.444453565817 0  398.0588135356345 451.4412761437442 0  403.5531785622926 447.285127045646 0  408.9309374414144 442.9791624087773 0  414.1880064015299 438.5266521049243 0  419.3203932989752 433.9309773069245 0  424.324200661095 429.1956279150535 0  429.1956286596235 424.3241998957182 0  433.9309780058756 419.3203925397119 0  438.5266527445345 414.1880056671062 0  442.9791630130591 408.9309367076756 0  447.2851276060475 403.5531778422888 0  451.4412766621026 398.0588128303826 0  455.4444540361634 392.4520140460735 0  459.2916197786263 386.7370392045948 0  462.9798524073514 380.9182281752347 0  466.5063511234856 374.9999996927758 0  469.8684379657123 368.9868479560565 0  473.0635598144817 362.8833392617846 0  476.0892903190255 356.6941085676214 0  478.9433317963513 350.4238558609745 0  481.6235169154735 344.0773427117675 0  484.12781039012 337.6593885555221 0  486.4543105028062 331.1748670749914 0  488.601250531677 324.6287025528375 0  490.5670001317469 318.0258660188321 0  492.3500665291326 311.3713716102628 0  493.949095695951 304.6702726271575 0  495.3628733416623 297.9276578347343 0  496.5903258712341 291.1486474470129 0  497.6305211749058 284.3383893426084 0  498.4826693388848 277.502055163614 0  499.1461232580606 270.6448362909296 0  499.6203791109319 263.7719400417897 0  499.9050767571306 256.8885855596534 0  499.9050767559877 243.1114143988867 0  499.6203791069493 236.2280598860241 0  499.1461232485393 229.3551635941651 0  498.4826693235677 222.4979446979962 0  497.6305211491849 215.6616104719064 0  496.5903258357701 208.8513523404629 0  495.3628732906988 202.0723419043604 0  493.9490956264813 195.3297270628552 0  492.3500664487791 188.6286280724281 0  490.5670000344809 181.9741336371959 0  488.6012504175981 175.3712970824318 0  486.4543103623226 168.8251325157939 0  484.1278102222298 162.3406109960628 0  481.6235167152198 155.9226567951971 0  478.9433315621651 149.5761436051346 0  476.0892900516498 143.3058908657982 0  473.063559513628 137.1166601437124 0  469.8684376406648 131.0131514433083 0  466.5063507675389 124.9999996907064 0  462.9798520124137 119.0817711822745 0  459.2916193464549 113.2629601339176 0  455.4444535642773 107.5479852733717 0  451.4412761528674 101.9411864767781 0  447.2851270583545 96.44682145403524 0  442.9791624165781 91.06906256805769 0  438.5266521117469 85.81199360630404 0  433.9309773156125 80.67960671046254 0  429.1956279150353 75.67579933888632 0  424.3241998888952 70.80437133373906 0  419.3203925223282 66.06902197812161 0  414.1880056411937 61.47334723289828 0  408.9309366751728 57.0208369601728 0  403.5531778009394 52.71487236176898 0  398.058812796452 48.55872331295853 0  392.4520140187753 44.55554594490843 0  386.7370391799677 40.70838020528396 0  380.9182281475119 37.02014757560744 0  374.9999996718656 33.49364886444181 0  368.9868479340393 30.13156202237255 0  362.8833392380029 26.93644017348339 0  356.6941085456942 23.91070967062674 0  350.4238558420009 21.0566681953261 0  344.0773426899492 18.37648307566465 0  337.6593885328982 15.87218960140942 0  331.1748670549786 13.54568949032341 0  324.6287025315056 11.39874946165088 0  318.0258660010876 9.432999863235466 0  311.3713716017894 7.649933468721599 0  304.6702726190621 6.050904302234756 0  297.9276578269805 4.637126656823085 0  291.148647441857 3.409674127905504 0  284.3383893425031 2.369478825079682 0  277.502055159398 1.517330660648639 0  270.6448362875833 0.853876741662134 0  263.7719400401456 0.3796208889774277 0  256.8885855592052 0.09492324285704967 0  243.1114143979462 0.09492324403817065 0  236.2280598850882 0.3796208931023841 0  229.3551635938215 0.8538767514891958 0  222.4979446968584 1.517330676558146 0  215.6616104703111 2.369478851036291 0  208.8513523382973 3.409674164591252 0  202.0723419066374 4.637126708856528 0  195.3297270659513 6.050904372824903 0  188.628628074828 7.649933550613184 0  181.9741336377093 9.432999965373938 0  175.3712970793675 11.39874958336037 0  168.8251325057572 13.54568964112298 0  162.340610986655 15.87218978129263 0  155.9226567874317 18.37648328793418 0  149.576143602509 21.05666843898663 0  143.3058908718157 23.91070994551046 0  137.1166601505524 26.93644048291054 0  131.0131514451933 30.13156235831508 0  124.9999996848412 33.49364923584736 0  119.0817711715717 37.0201479941652 0  113.2629601211624 40.70838066187849 0  107.5479852622251 44.55554644345162 0  101.9411864693332 48.55872385260452 0  96.44682143286516 52.71487295812284 0  91.06906254351222 57.02083760363669 0  85.81199358272519 61.4733479087879 0  80.67960667988106 66.06902271253972 0  75.67579930062769 70.80437212218331 0  70.80437129287643 75.67580015310926 0  66.06902193673014 80.67960752263491 0  61.47334718684866 85.81199441168215 0  57.02083692524275 91.0690633672404 0  52.71487232786438 96.44682224262129 0  48.55872328070024 101.941187247437 0  44.55554591578033 107.5479860232332 0  40.7083801742321 113.2629608675606 0  37.02014754791168 119.0817718975441 0  33.49364883372994 125.000000381329 0  30.13156199866361 131.0131521097709 0  26.9364401549829 137.1166607985551 0  23.91070965524918 143.3058914868915 0  21.05666818346614 149.576144185037 0  18.37648306853811 155.9226573275967 0  15.8721895918909 162.3406114925245 0  13.54568948170046 168.8251329701392 0  11.39874945301878 175.3712974960928 0  9.432999857087736 181.9741340206533 0  7.649933466342702 188.6286284076045 0  6.050904301250966 195.3297273853278 0  4.637126656808988 202.0723421730917 0  3.409674127767772 208.8513525589684 0  2.369478824521138 215.6616106615248 0  1.517330660909465 222.4979448382452 0  0.8538767414496533 229.355163714981 0  0.3796208887135322 236.2280599646376 0  0.09492324266324204 243.1114144478261 0  0.0949232442452228 256.8885856095658 0  0.3796208935834784 263.7719401236316 0  0.8538767530323526 270.6448364248016 0  1.517330679476544 277.5020553295092 0  2.369478854618649 284.3383895555228 0  3.409674170191892 291.1486476952655 0  4.6371267162381 297.9276581311522 0  6.050904381420935 304.6702729724059 0  7.649933562385399 311.3713719716595 0  9.43299997979841 318.0258664133013 0  11.3987495994252 324.6287029719946 0  13.54568965885832 331.174867545904 0  15.87218979367188 337.6593890464085 0  18.37648329843151 344.0773432384132 0  21.05666844777872 350.423856417535 0  23.91070995156048 356.6941091410045 0  26.93644048988043 362.8833398632205 0  30.13156235982007 368.9868485575877 0  33.49364924138357 375.0000003247478 0  37.0201480006036 380.9182288389023 0  40.70838066758398 386.7370398875706 0  44.55554644477201 392.4520147396792 0  48.55872386086904 398.0588135419111 0  52.71487295981296 403.5531785693063 0  57.02083760525949 408.9309374584583 0  61.47334790862246 414.1880064170849 0  66.06902271205095 419.320393319588 0  70.80437211216579 424.3242006890749 0  75.67580013809859 429.195628692521 0  80.6796075127923 433.930978054209 0  85.81199439754931 438.5266528008431 0  91.06906334717917 442.9791630582355 0  96.44682221438322 447.2851276501571 0  101.9411872243843 451.441276702356 0  107.5479859945825 455.4444540643537 0  113.2629608446994 459.2916198108319 0  119.0817718768376 462.9798524393601 0  125.0000003647644 466.5063511567065 0  131.0131521012763 469.8684379967393 0  137.1166607840049 473.0635598376539 0  143.3058914748804 476.0892903390826 0  149.5761441732679 478.9433318113714 0  155.9226573130112 481.6235169255377 0  162.3406114779862 484.1278104026658 0  168.8251329570439 486.4543105138039 0  175.3712974805475 488.601250542119 0  181.9741340135204 490.5670001408953 0  188.6286284005059 492.3500665318597 0  195.3297273788229 493.9490956972913 0  202.0723421640089 495.3628733414168 0  208.8513525529672 496.5903258712308 0  215.6616106544547 497.6305211744985 0  222.4979448327038 498.4826693384772 0  229.3551637102845 499.1461232581612 0  236.2280599621369 499.6203791111485 0  243.1114144470173 499.9050767573145 0  155.2373389820306 474.8197567317462 0  25.36256300907667 153.9152755065208 0  432.3709625126712 412.6214396304305 0  6.013151705810699 246.637913163471 0  246.6379131630491 493.986848294322 0  338.6995838441862 22.68244767887072 0  477.3175523131281 338.6995838660569 0  493.9868482700757 246.6379131399102 0  246.6201155078769 6.218451882810491 0  417.6179310263282 72.7156044707053 0  102.2232990934413 445.0100869616822 0  63.66330858966404 92.20354579482142 0  391.3105220491464 50.73522820883105 0  72.79295043967942 418.0702734974704 0  448.290574428537 108.25674339002 0  402.4604651193511 440.7462829841712 0  97.55317348421397 59.11376320116034 0  136.7376477664901 33.58246472647134 0  363.3288394375288 465.6947312928271 0  44.0678766556007 381.0860953771871 0  469.6905266180034 142.3890690100806 0  22.68244791668644 338.6995843487432 0  338.699584349159 477.317552078365 0  173.389488083762 18.6681884918202 0  483.4809734778481 179.7121987795732 0  13.50237455842738 306.4709525540879 0  305.9825168523021 487.24416992
[...]
<PointData  Vectors="f_12"> 
<DataArray  type="Float64"  Name="f_12"  NumberOfComponents="3" format="ascii">5.1610765634467237e-01 1.6985745915051698e-01 5.7279137114515954e-01  4.9549055057002794e-01 1.6370747553366619e-01 4.7803802347002311e-01  5.2598834124315619e-01 1.8388836756595314e-01 6.0775944954060168e-01  5.6674383474497370e-01 3.2550638891355271e-01 6.6954394379914461e-01  5.2618128480590876e-01 1.8422062913723541e-01 6.0838131418862851e-01  5.2635602838318585e-01 1.8452344393024558e-01 6.0894240197665839e-01  5.2652754469454843e-01 1.8482250258047003e-01 6.0949120852109406e-01  5.2668373777721700e-01 1.8509624369253141e-01 6.0998947475174181e-01  5.2683006784753184e-01 1.8535408261235445e-01 6.1045484077923151e-01  5.2696559510165464e-01 1.8559399302792870e-01 6.1088461088751522e-01  5.2709058541512110e-01 1.8581622767360848e-01 6.1127996024027642e-01  5.2720632488308317e-01 1.8602291738506538e-01 6.1164512797350479e-01  5.2731152986736851e-01 1.8621154983176907e-01 6.1197627308915381e-01  5.2740534679761353e-01 1.8638039030663109e-01 6.1227098768786492e-01  5.2747846792117847e-01 1.8651235605252878e-01 6.1250028476863061e-01  5.2756069419231577e-01 1.8666133699074472e-01 6.1275764120231835e-01  5.2760601075783986e-01 1.8674365463988593e-01 6.1289928450795983e-01  5.2765663026918397e-01 1.8683593764233067e-01 6.1305728432558781e-01  5.2769245289283462e-01 1.8690155515617418e-01 6.1316892714374593e-01  5.2771875874922980e-01 1.8695001908489189e-01 6.1325077647862725e-01  5.2773715472538418e-01 1.8698421409671528e-01 6.1330779808582758e-01  5.2773530734051377e-01 1.8698166295447671e-01 6.1330175987072499e-01  5.2772082492102645e-01 1.8695621292344472e-01 6.1325633966142212e-01  5.2770580815473600e-01 1.8692994508148653e-01 6.1320908154342313e-01  5.2767789721590375e-01 1.8688033310956870e-01 6.1312158103795389e-01  5.2763247231707977e-01 1.8679912429898543e-01 6.1297927493730908e-01  5.2756735094826224e-01 1.8668240281836326e-01 6.1277523355018837e-01  5.2750256184939337e-01 1.8656669214004024e-01 6.1257187448321782e-01  5.2742686267302064e-01 1.8643169172429458e-01 6.1233395338501173e-01  5.2732697342678747e-01 1.8625355410402128e-01 6.1201969098535924e-01  5.2722372934180350e-01 1.8607016638227261e-01 6.1169417020494798e-01  5.2710513495099676e-01 1.8586016486507731e-01 6.1131940857707201e-01  5.2697268279025788e-01 1.8562641302239150e-01 6.1089994974174056e-01  5.2683316731278473e-01 1.8538133295707868e-01 6.1045687449528385e-01  5.2666920528285233e-01 1.8509444101468009e-01 6.0993469252282007e-01  5.2649455715642590e-01 1.8479049430186018e-01 6.0937673246444413e-01  5.2631598591110984e-01 1.8448160723371729e-01 6.0880414239721259e-01  5.2611397090326584e-01 1.8413418658537378e-01 6.0815404287332453e-01  5.2588734231551448e-01 1.8374702948728447e-01 6.0742187842037543e-01  5.2565373926468062e-01 1.8335106873141516e-01 6.0666380260246422e-01  5.2541492283306179e-01 1.8294962215180477e-01 6.0588519003064700e-01  5.2515183173683588e-01 1.8251102644477030e-01 6.0502334814707592e-01  5.2486381005666760e-01 1.8203499543073459e-01 6.0407515164954584e-01  5.2456549313673007e-01 1.8154714464801139e-01 6.0308751817612560e-01  5.2424581646262458e-01 1.8103001331567031e-01 6.0202306327391486e-01  5.2390761738096225e-01 1.8048907363636471e-01 6.0089006698189240e-01  5.2355271948575632e-01 1.7992846455044698e-01 5.9969349368430913e-01  5.2318245989873069e-01 1.7935123960673519e-01 5.9843705689896454e-01  5.2277812183536176e-01 1.7872992473077692e-01 5.9705484026752187e-01  5.2235791010486665e-01 1.7809376537208566e-01 5.9560815612717311e-01  5.2191833949847799e-01 1.7743977617698789e-01 5.9408255218144290e-01  5.2145432809947989e-01 1.7676083487714661e-01 5.9245978659761833e-01  5.2097146513595116e-01 1.7606804890359484e-01 5.9075643390655164e-01  5.2045473923903707e-01 1.7534128053662881e-01 5.8891801928362597e-01  5.1991607432299025e-01 1.7460025039396268e-01 5.8698383806150611e-01  5.1935747405148536e-01 1.7384992536546295e-01 5.8495902050296300e-01  5.1876639809403069e-01 1.7307594509937105e-01 5.8279531031399956e-01  5.1814975101892968e-01 1.7229057524925195e-01 5.8051506782999851e-01  5.1750932885579426e-01 1.7149832405237000e-01 5.7812127455362428e-01  5.1685852437770274e-01 1.7071606052204036e-01 5.7566725747244196e-01  5.1538662546450065e-01 1.6905384831265066e-01 5.7000378943270613e-01  5.1462762365362702e-01 1.6824802361211486e-01 5.6703187633388175e-01  5.1384669384693438e-01 1.6745829169573159e-01 5.6393572675204451e-01  5.1301583537537210e-01 1.6666017370032421e-01 5.6059769170751006e-01  5.1215829883285902e-01 1.6588542604220052e-01 5.5710593715342982e-01  5.1126909955865030e-01 1.6513317532512017e-01 5.5343417910636183e-01  5.1035011288376386e-01 1.6441624636936572e-01 5.4958298141285133e-01  5.0939737327326473e-01 1.6373661926358149e-01 5.4552982456619981e-01  5.0841741193235201e-01 1.6310861517235620e-01 5.4129513768679605e-01  5.0741348471394843e-01 1.6254340892611954e-01 5.3688625798754086e-01  5.0636870904612985e-01 1.6204292250917623e-01 5.3221915417137999e-01  5.0530808275374106e-01 1.6163092957635464e-01 5.2739847719934130e-01  5.0422226982882934e-01 1.6131536425128487e-01 5.2237215762111744e-01  5.0310499942435494e-01 1.6111037333159853e-01 5.1710109327355924e-01  5.0196595394733001e-01 1.6103580338293097e-01 5.1161785188714892e-01  5.0081264240878742e-01 1.6111213649729667e-01 5.0594708125430488e-01  4.9964676576959288e-01 1.6135799943025814e-01 5.0008499961232133e-01  4.9847354010984057e-01 1.6179851085131464e-01 4.9404352378730143e-01  4.9729320959075052e-01 1.6246102321153999e-01 4.8780812212324415e-01  4.9611339629136225e-01 1.6337266169860304e-01 4.8140120140918830e-01  4.9495749876070361e-01 1.6454604410739002e-01 4.7493548532316204e-01  4.9380346733935770e-01 1.6605841716838537e-01 4.6825808424952320e-01  4.9268322343809706e-01 1.6791823623073748e-01 4.6152878085103555e-01  4.9159756664024712e-01 1.7017450946548912e-01 4.5472798127712388e-01  4.9056395995800456e-01 1.7287307424315404e-01 4.4792360998211467e-01  4.8959819211912098e-01 1.7605517560660625e-01 4.4117992145153906e-01  4.8871628002759565e-01 1.7976403780313865e-01 4.3456227416419324e-01  4.8793739062408376e-01 1.8403630517648117e-01 4.2815764103061088e-01  4.8727781411991811e-01 1.8890803038561516e-01 4.2203730612284507e-01  4.8676435133916479e-01 1.9438211806783726e-01 4.1634948890932238e-01  4.8641724706634437e-01 2.0042013586715432e-01 4.1122927367403589e-01  4.8625772190105648e-01 2.0691922593367895e-01 4.0685292100022036e-01  4.8630685642239363e-01 2.1362901480822949e-01 4.0348126691855896e-01  4.8656998329489093e-01 2.2031150255931564e-01 4.0127997098551405e-01  4.8704641294108836e-01 2.2641268578284085e-01 4.0056469704772135e-01  4.8772514581640369e-01 2.3094059821654547e-01 4.0185048780106297e-01  4.8858441726376778e-01 2.3302164232531958e-01 4.0552477856282754e-01  4.8962368488828817e-01 2.3182360954409556e-01 4.1205977474497579e-01  4.9090601734804407e-01 2.2637479241994604e-01 4.2231105044097245e-01  4.9262186322394580e-01 2.1711387832140105e-01 4.3693986841196142e-01  4.9507078594670390e-01 2.0621533863694069e-01 4.5606343142203981e-01  4.9864939913371381e-01 1.9581579642612573e-01 4.8021548595540131e-01  5.0345517614744140e-01 1.8865688721955082e-01 5.0790575173429009e-01  5.0945459165209317e-01 1.8617133853083256e-01 5.3770563691185780e-01  5.1624701166038378e-01 1.8881899833500132e-01 5.6697113767414475e-01  5.2335798796824684e-01 1.9598916093123969e-01 5.9361366725807541e-01  5.3031594835316076e-01 2.0656995823662261e-01 6.1615120102757559e-01  5.3678872820762791e-01 2.1935615997096680e-01 6.3406358610156688e-01  5.4261736050888421e-01 2.3334125418501614e-01 6.4761073359596932e-01  5.4773753541551340e-01 2.4769834748388825e-01 6.5731797837913419e-01  5.5213529681402784e-01 2.6175398285633822e-01 6.6389646090822751e-01  5.5582676301212441e-01 2.7504372883957473e-01 6.6794828838520870e-01  5.5890245476930933e-01 2.8732678937074435e-01 6.7016722813105756e-01  5.6147636443404481e-01 2.9860891234039094e-01 6.7109131885961049e-01  5.6359059838035452e-01 3.0870764924745137e-01 6.7108263947187796e-01  5.6533481863871060e-01 3.1770100717976313e-01 6.7049532899508213e-01  5.6782287366813278e-01 3.3192922914326711e-01 6.6846412309659931e-01  5.6889276312887516e-01 3.3845962028062759e-01 6.6720670027048978e-01  5.6952833323978747e-01 3.4273017461032973e-01 6.6615698257679823e-01  5.7007198828204131e-01 3.4645240998737670e-01 6.6520100886051470e-01  5.7048113156940738e-01 3.4931661281962023e-01 6.6442268527148507e-01  5.7074256505818899e-01 3.5118570226216805e-01 6.6389324896085722e-01  5.7087886683329858e-01 3.5214339816883378e-01 6.6362374059096452e-01  5.7090936027523786e-01 3.5229890232345845e-01 6.6359902596527054e-01  5.7082223738387849e-01 3.5157043654801645e-01 6.6384148373669261e-01  5.7067794459519106e-01 3.5037946343616128e-01 6.6423316614160866e-01  5.7032371270044391e-01 3.4773443555682310e-01 6.6501276877134019e-01  5.6986141235613930e-01 3.4439460495137159e-01 6.6594046549405583e-01  5.6925490203375573e-01 3.4019035458610769e-01 6.6702228589220391e-01  5.6851684829485294e-01 3.3527792492967629e-01 6.6816344611971523e-01  5.6757517823520998e-01 3.2935741222574533e-01 6.6934224102801454e-01  5.6638335687247254e-01 3.2232496174435243e-01 6.7046220216069430e-01  5.6496041798654417e-01 3.1444891649342743e-01 6.7135603782044595e-01  5.6325869772488979e-01 3.0565343301366094e-01 6.7187944392411103e-01  5.6123369738564299e-01 2.9593897471390151e-01 6.7183507443523971e-01  5.5883098313031676e-01 2.8530068221439209e-01 6.7098099360076269e-01  5.5597183378234516e-01 2.7371985047337632e-01 6.6896589734120349e-01  5.5263160727499439e-01 2.6138156213619435e-01 6.6546008540848600e-01  5.4880012184054339e-01 2.4857934577101773e-01 6.6008084081580232e-01  5.4443860271003575e-01 2.3553517241686067e-01 6.5239159755051834e-01  5.3953074587626793e-01 2.2257318440452684e-01 6.4193054727646959e-01  5.3411652967782886e-01 2.1018593877314662e-01 6.2834293521607421e-01  5.2828393402304263e-01 1.9893946313730829e-01 6.1143572745385255e-01  5.2219770233488205e-01 1.8947873465921683e-01 5.9136252549079971e-01  5.1607464738272657e-01 1.8239790103487530e-01 5.6863617590913818e-01  5.1019220292331391e-01 1.7816736340011047e-01 5.4428126005622124e-01  5.0482572064390019e-01 1.7699189143960462e-01 5.1962770487126031e-01  5.0021580662504783e-01 1.7866086153627503e-01 4.9621648593053963e-01  4.9646459741849575e-01 1.8257297222875732e-01 4.7520288922079362e-01  4.9358127732615842e-01 1.8783738915475251e-01 4.5741788556861851e-01  4.9142883809294285e-01 1.9344692091228796e-01 4.4295341502463342e-01  4.8988679302195620e-01 1.9833382068847177e-01 4.3193471714512860e-01  4.8879213157616724e-01 2.0184883945767271e-01 4.2397652845154549e-01  4.8801935000792040e-01 2.0371743796660477e-01 4.1862923293413257e-01  4.8748381201308905e-01 2.0397280907407472e-01 4.1545445788405477e-01  4.8713645311265336e-01 2.0285304307277960e-01 4.1407000122464560e-01  4.8693543288843294e-01 2.0083829058435779e-01 4.1398550037102622e-01  4.8687155485279959e-01 1.9815568107492129e-01 4.1502245401602056e-01  4.8694423428677269e-01 1.9496513138668128e-01 4.1708451158812582e-01  4.8712438938064939e-01 1.9166108211012420e-01 4.1979109972823975e-01  4.8740633675766254e-01 1.8836250348692837e-01 4.2304146085502653e-01  4.8778235858648772e-01 1.8514291868205243e-01 4.2674949678079421e-01  4.8825546078824039e-01 1.8202468752738221e-01 4.3091438569425711e-01  4.8878229173069593e-01 1.7921549970533374e-01 4.3518777532391067e-01  4.8938444212025362e-01 1.7658126806273988e-01 4.3975513153717216e-01  4.9003230857548802e-01 1.7421001266291103e-01 4.4440750874128143e-01  4.9074224135442929e-01 1.7204506803982483e-01 4.4926032990117137e-01  4.9147807141498484e-01 1.7013695141816540e-01 4.5409313232798615e-01  4.9223916126502787e-01 1.6846677116481790e-01 4.5891239620587543e-01  4.9302755854776953e-01 1.6699923816385637e-01 4.6374613113287882e-01  4.9383820475974394e-01 1.6572338041768581e-01 4.6857287003938886e-01  4.9465983214510484e-01 1.6463183516033461e-01 4.7333692009476164e-01  4.9632496758169853e-01 1.6293763859700017e-01 4.8265515964563732e-01  4.9716024870409825e-01 1.6230994342940538e-01 4.8718037348681242e-01  4.9800122530376983e-01 1.6180724772483682e-01 4.9164757188446950e-01  4.9883572462718273e-01 1.6142283346485201e-01 4.9599857374508222e-01  4.9966464842420266e-01 1.6114475587877305e-01 5.0024537399409297e-01  5.0048653730426429e-01 1.6096274126407040e-01 5.0438664115703524e-01  5.0130049064336757e-01 1.6086819238892339e-01 5.0842304694474616e-01  5.0210377857060240e-01 1.6085231180855528e-01 5.1234642470437031e-01  5.0289660543224690e-01 1.6090775651008218e-01 5.1616257211365180e-01  5.0367791114636962e-01 1.6102752764760883e-01 5.1987069951329701e-01  5.0444709706929236e-01 1.6120587203587766e-01 5.2347195409743197e-01  5.0519869796007066e-01 1.6143364969978205e-01 5.2694550985701827e-01  5.0594380646243386e-01 1.6171117046790542e-01 5.3034528987900365e-01  5.0667552281309436e-01 1.6203056325987392e-01 5.3364353715723734e-01  5.0738767436835130e-01 1.6238481764232268e-01 5.3681525960895382e-01  5.0809838040428690e-01 1.6278027991019209e-01 5.3994363587197691e-01  5.0879312610842153e-01 1.6320492405349765e-01 5.4296735575605570e-01  5.0946228058008991e-01 1.6364866577530141e-01 5.4584708400317294e-01  5.1012359699468246e-01 1.6412081777460494e-01 5.4866295375814900e-01  5.1077069799023189e-01 1.6461267496045495e-01 5.5138940787837232e-01  5.1140499671154083e-01 1.6512405739499492e-01 5.5403458777181158e-01  5.1202534807486599e-01 1.6565149174081537e-01 5.5659551327150369e-01  5.1263383211024960e-01 1.6619421393816142e-01 5.5908274740130881e-01  5.1323121888709056e-01 1.6675147267568291e-01 5.6150087974172269e-01  5.1380919073016673e-01 1.6731274846298586e-01 5.6381859598401551e-01  5.1437673711226573e-01 1.6788547690933064e-01 5.6607305431612331e-01  5.1493458129868774e-01 1.6846815390893277e-01 5.6826937589851356e-01  5.1547164397360679e-01 1.6904800381264387e-01 5.7036475258643260e-01  5.1600223120825262e-01 1.6963884175736482e-01 5.7241693591385445e-01  5.1651970738533548e-01 1.7023169589607434e-01 5.7440113113012681e-01  5.1702262378526909e-01 1.7082363337606546e-01 5.7631350151552818e-01  5.1751344547314182e-01 1.7141629331248376e-01 5.7816444549588430e-01  5.1799165625058141e-01 1.7200775295273441e-01 5.7995330877553186e-01  5.1845956801865145e-01 1.7259989693195635e-01 5.8168976706867725e-01  5.1891958554268780e-01 1.7319482689824955e-01 5.8338354969044159e-01  5.1935928738434622e-01 1.7377497299238123e-01 5.8499039961874089e-01  5.1978562651597504e-01 1.7434857962120104e-01 5.8653680961472721e-01  5.2021143331316522e-01 1.7493226271755605e-01 5.8806992919629153e-01  5.2061929135361196e-01 1.7550116689157921e-01 5.8952800653542548e-01  5.2101133424221024e-01 1.7605726370948985e-01 5.9091979536537675e-01  5.2139550254915057e-01 1.7661086124449338e-01 5.9227435774828685e-01  5.2176683245836941e-01 1.7715399966454964e-01 5.9357497480283106e-01  5.2213038530338018e-01 1.7769367504015682e-01 5.9484006463432515e-01  5.2247544890296749e-01 1.7821269040841625e-01 5.9603324050165085e-01  5.2281424501963680e-01 1.7872922025522892e-01 5.9719757134507334e-01  5.2313922821164438e-01 1.7923078888896768e-01 5.9830780413821005e-01  5.2345503304775653e-01 1.7972404437369521e-01 5.9938020385320001e-01  5.2376299123972170e-01 1.8021053708805873e-01 6.0042005654747987e-01  5.2405319032586795e-01 1.8067397058104401e-01 6.0139479566160270e-01  5.2433090049210007e-01 1.8112202186607165e-01 6.0232247456826948e-01  5.2460437184970643e-01 1.8156758262675066e-01 6.0323135071209399e-01  5.2486252325183058e-01 1.8199212187145392e-01 6.0408502317235324e-01  5.2510701024700579e-01 1.8239771666363475e-01 6.0488979462971237e-01  5.2534271370095109e-01 1.8279203363875066e-01 6.0566193083963205e-01  5.2556869537216166e-01 1.8317298427704001e-01 6.0639916499804136e-01  5.2578023861295986e-01 1.8353230177060742e-01 6.0708625011170392e-01  5.2187399613045926e-01 1.7731068889473756e-01 5.9394953122562610e-01  4.8681582036569665e-01 1.9779589739960285e-01 4.1488887275732850e-01  5.2665486318659105e-01 1.8506704649373215e-01 6.0989024529570812e-01  4.9498788187923859e-01 1.6423730464498662e-01 4.7520940767269365e-01  5.2579762809562891e-01 1.8356040700341184e-01 6.0714354274371474e-01  5.0577334407538510e-01 1.8801786765493281e-01 5.1949118353622337e-01  5.2325378203291717e-01 1.7945932869860806e-01 5.9868091508098431e-01  5.1564216565396870e-01 1.6932880285182697e-01 5.7100005556858713e-01  5.6697962650824862e-01 3.2700382823331320e-01 6.6928298062375036e-01  4.8694186731674111e-01 1.9207351943102610e-01 4.1853458201691246e-01  5.1814433938458260e-01 1.7219828862622044e-01 5.8052194433391024e-01  5.0181637003583435e-01 1.7844987279544827e-01 5.0430424262279250e-01  4.8682798601289906e-01 2.2512324759432278e-01 4.0004446103093139e-01  5.1514459379858091e-01 1.6869093351406633e-01 5.6909174514081728e-01  4.9312700668357640e-01 1.6711449965044503e-01 4.6423294505074603e-01  5.2738090181559472e-01 1.8634691490594157e-01 6.1219080559714201e-01  5.4155642647737845e-01 2.2794046103576548e-01 6.4639211780872263e-01  5.6374410693602539e-01 3.0827360476120985e-01 6.7169984012571571e-01  5.2764126760648655e-01 1.8680886840214117e-01 6.1300960637243262e-01  5.1105264708239595e-01 1.6483460121234519e-01 5.5256915907953608e-01  5.0010890948798281e-01 1.6123583488753476e-01 5.0242543472643952e-01  5.0622709112210429e-01 1.6182518381745528e-01 5.3162938129665149e-01  5.2754718032926651e-01 1.8663616768029867e-01 6.1271597661840671e-01  5.6975507311698248e-01 3.4382657243079423e-01 6.6604426647503046e-01  5.0666193236956614e-01 1.6216980506206097e-01 5.3353950275646655e-01  5.0238889300595380e-01 1.6085975157116145e-01 5.1372635157660029e-01  5.2715440831207638e-01 1.8592879784819866e-01 6.1148228215541101e-01  5.2382626593015691e-01 1.8030927111580333e-01 6.0063423013002815e-01  4.8900201695820822e-01 1.7814186064224308e-01 4.3691057218306367e-01  5.4452089446441732e-01 2.3871777314076889e-01 6.5135631466891675e-01  5.2059631633180958e-01 1.7553588965012998e-01 5.8942505767056963e-01  5.2548714133689833e-01 1.8306849798774527e-01 6.0612207482784297e-01  5.7060508019960965e-01 3.5026343177909142e-01 6.6414106006021589e-01  5.1062872706305540e-01 1.6462465792338468e-01 5.5075759073263719e-01  4.9916125949011536e-01 1.6129653706033914e-01 4.9767674862141881e-01  5.2667099507006532e-01 1.8507253080381503e-01 6.0994968148877615e-01  4.9021220038493896e-01 2.3168765096637503e-01 4.1541677114764541e-01  4.8827409230463159e-01 2.0442187687068078e-01 4.1968933985743279e-01  5.2490623638946399e-01 1.8206284757152416e-01 6.0423009084964341e-01  5.2032269637657247e-01 1.7508423790287092e-01 5.8847016817936859e-01  4.9183624273613596e-01 1.6929349043721237e-01 4.5639035057110799e-01  5.5952327319194195e-01 2.9015556095715561e-01 6.7038313795736060e-01  5.1840634198561386e-01 1.7261222068129903e-01 5.8146779198889154e-01  5.2752739739885668e-01 1.8660648606971814e-01 6.1265204606084378e-01  5.2200730303049003e-01 1.7756782890600800e-01 5.9439417397259087e-01  5.6961320582269026e-01 3.4342760475250139e-01 6.6594792093178434e-01  5.2598905664799800e-01 2.0000794059295732e-01 6.0238872045808201e-01  5.1327045890925538e-01 1.6689532200733079e-01 5.6162795617276484e-01  4.8902969965948057e-01 1.7829468071251758e-01 4.3699421662867499e-01  5.2289924828480849e-01 1.7885820270862068e-01 5.9748931819622053e-01  5.2609186174354550e-01 1.8409295451621238e-01 6.0808466204392220e-01  5.1345948157089183e-01 1.6696802967433555e-01 5.6241997043126668e-01  5.5374057041504754e-01 2.6556158139529379e-01 6.6665417659947512e-01  5.0909497163668516e-01 1.6339826604898131e-01 5.4427157111016922e-01  4.8751118243425745e-01 1.8717837475013221e-01 4.2421804707214888e-01  5.2460918726233396e-01 1.8161553011024811e-01 6.0323401540900912e-01  5.1669076842