<?xml version="1.0"?>
<VTKFile type="UnstructuredGrid"  version="0.1"  >
<UnstructuredGrid>
<Piece  NumberOfPoints="4940" NumberOfCells="9650">
<Points>
<DataArray  type="Float64"  NumberOfComponents="3"  format="ascii">500 250 0  0 250 0  250 500 0  250 0 0  256.8885856082646 499.9050767557906 0  263.7719401218049 499.6203791065173 0  270.6448364229772 499.1461232471188 0  277.5020553257866 498.4826693209355 0  284.3383895508592 497.6305211460281 0  291.1486476865662 496.5903258312597 0  297.9276581259182 495.3628732847843 0  304.6702729675493 493.9490956196674 0  311.3713719748657 492.3500664368026 0  318.0258664141369 490.5670000199653 0  324.6287029687753 488.6012504015818 0  331.1748675330201 486.4543103455647 0  337.6593890460416 484.1278102064655 0  344.0773432429536 481.6235166997244 0  350.4238564271474 478.9433315480048 0  356.694109139292 476.0892900492477 0  362.88333985546 473.0635595140469 0  368.9868485575419 469.8684376402048 0  375.0000003153078 466.5063507640667 0  380.9182288257928 462.9798520074548 0  386.7370398729688 459.2916193419558 0  392.4520147244077 455.444453565817 0  398.0588135356345 451.4412761437442 0  403.5531785622926 447.285127045646 0  408.9309374414144 442.9791624087773 0  414.1880064015299 438.5266521049243 0  419.3203932989752 433.9309773069245 0  424.324200661095 429.1956279150535 0  429.1956286596235 424.3241998957182 0  433.9309780058756 419.3203925397119 0  438.5266527445345 414.1880056671062 0  442.9791630130591 408.9309367076756 0  447.2851276060475 403.5531778422888 0  451.4412766621026 398.0588128303826 0  455.4444540361634 392.4520140460735 0  459.2916197786263 386.7370392045948 0  462.9798524073514 380.9182281752347 0  466.5063511234856 374.9999996927758 0  469.8684379657123 368.9868479560565 0  473.0635598144817 362.8833392617846 0  476.0892903190255 356.6941085676214 0  478.9433317963513 350.4238558609745 0  481.6235169154735 344.0773427117675 0  484.12781039012 337.6593885555221 0  486.4543105028062 331.1748670749914 0  488.601250531677 324.6287025528375 0  490.5670001317469 318.0258660188321 0  492.3500665291326 311.3713716102628 0  493.949095695951 304.6702726271575 0  495.3628733416623 297.9276578347343 0  496.5903258712341 291.1486474470129 0  497.6305211749058 284.3383893426084 0  498.4826693388848 277.502055163614 0  499.1461232580606 270.6448362909296 0  499.6203791109319 263.7719400417897 0  499.9050767571306 256.8885855596534 0  499.9050767559877 243.1114143988867 0  499.6203791069493 236.2280598860241 0  499.1461232485393 229.3551635941651 0  498.4826693235677 222.4979446979962 0  497.6305211491849 215.6616104719064 0  496.5903258357701 208.8513523404629 0  495.3628732906988 202.0723419043604 0  493.9490956264813 195.3297270628552 0  492.3500664487791 188.6286280724281 0  490.5670000344809 181.9741336371959 0  488.6012504175981 175.3712970824318 0  486.4543103623226 168.8251325157939 0  484.1278102222298 162.3406109960628 0  481.6235167152198 155.9226567951971 0  478.9433315621651 149.5761436051346 0  476.0892900516498 143.3058908657982 0  473.063559513628 137.1166601437124 0  469.8684376406648 131.0131514433083 0  466.5063507675389 124.9999996907064 0  462.9798520124137 119.0817711822745 0  459.2916193464549 113.2629601339176 0  455.4444535642773 107.5479852733717 0  451.4412761528674 101.9411864767781 0  447.2851270583545 96.44682145403524 0  442.9791624165781 91.06906256805769 0  438.5266521117469 85.81199360630404 0  433.9309773156125 80.67960671046254 0  429.1956279150353 75.67579933888632 0  424.3241998888952 70.80437133373906 0  419.3203925223282 66.06902197812161 0  414.1880056411937 61.47334723289828 0  408.9309366751728 57.0208369601728 0  403.5531778009394 52.71487236176898 0  398.058812796452 48.55872331295853 0  392.4520140187753 44.55554594490843 0  386.7370391799677 40.70838020528396 0  380.9182281475119 37.02014757560744 0  374.9999996718656 33.49364886444181 0  368.9868479340393 30.13156202237255 0  362.8833392380029 26.93644017348339 0  356.6941085456942 23.91070967062674 0  350.4238558420009 21.0566681953261 0  344.0773426899492 18.37648307566465 0  337.6593885328982 15.87218960140942 0  331.1748670549786 13.54568949032341 0  324.6287025315056 11.39874946165088 0  318.0258660010876 9.432999863235466 0  311.3713716017894 7.649933468721599 0  304.6702726190621 6.050904302234756 0  297.9276578269805 4.637126656823085 0  291.148647441857 3.409674127905504 0  284.3383893425031 2.369478825079682 0  277.502055159398 1.517330660648639 0  270.6448362875833 0.853876741662134 0  263.7719400401456 0.3796208889774277 0  256.8885855592052 0.09492324285704967 0  243.1114143979462 0.09492324403817065 0  236.2280598850882 0.3796208931023841 0  229.3551635938215 0.8538767514891958 0  222.4979446968584 1.517330676558146 0  215.6616104703111 2.369478851036291 0  208.8513523382973 3.409674164591252 0  202.0723419066374 4.637126708856528 0  195.3297270659513 6.050904372824903 0  188.628628074828 7.649933550613184 0  181.9741336377093 9.432999965373938 0  175.3712970793675 11.39874958336037 0  168.8251325057572 13.54568964112298 0  162.340610986655 15.87218978129263 0  155.9226567874317 18.37648328793418 0  149.576143602509 21.05666843898663 0  143.3058908718157 23.91070994551046 0  137.1166601505524 26.93644048291054 0  131.0131514451933 30.13156235831508 0  124.9999996848412 33.49364923584736 0  119.0817711715717 37.0201479941652 0  113.2629601211624 40.70838066187849 0  107.5479852622251 44.55554644345162 0  101.9411864693332 48.55872385260452 0  96.44682143286516 52.71487295812284 0  91.06906254351222 57.02083760363669 0  85.81199358272519 61.4733479087879 0  80.67960667988106 66.06902271253972 0  75.67579930062769 70.80437212218331 0  70.80437129287643 75.67580015310926 0  66.06902193673014 80.67960752263491 0  61.47334718684866 85.81199441168215 0  57.02083692524275 91.0690633672404 0  52.71487232786438 96.44682224262129 0  48.55872328070024 101.941187247437 0  44.55554591578033 107.5479860232332 0  40.7083801742321 113.2629608675606 0  37.02014754791168 119.0817718975441 0  33.49364883372994 125.000000381329 0  30.13156199866361 131.0131521097709 0  26.9364401549829 137.1166607985551 0  23.91070965524918 143.3058914868915 0  21.05666818346614 149.576144185037 0  18.37648306853811 155.9226573275967 0  15.8721895918909 162.3406114925245 0  13.54568948170046 168.8251329701392 0  11.39874945301878 175.3712974960928 0  9.432999857087736 181.9741340206533 0  7.649933466342702 188.6286284076045 0  6.050904301250966 195.3297273853278 0  4.637126656808988 202.0723421730917 0  3.409674127767772 208.8513525589684 0  2.369478824521138 215.6616106615248 0  1.517330660909465 222.4979448382452 0  0.8538767414496533 229.355163714981 0  0.3796208887135322 236.2280599646376 0  0.09492324266324204 243.1114144478261 0  0.0949232442452228 256.8885856095658 0  0.3796208935834784 263.7719401236316 0  0.8538767530323526 270.6448364248016 0  1.517330679476544 277.5020553295092 0  2.369478854618649 284.3383895555228 0  3.409674170191892 291.1486476952655 0  4.6371267162381 297.9276581311522 0  6.050904381420935 304.6702729724059 0  7.649933562385399 311.3713719716595 0  9.43299997979841 318.0258664133013 0  11.3987495994252 324.6287029719946 0  13.54568965885832 331.174867545904 0  15.87218979367188 337.6593890464085 0  18.37648329843151 344.0773432384132 0  21.05666844777872 350.423856417535 0  23.91070995156048 356.6941091410045 0  26.93644048988043 362.8833398632205 0  30.13156235982007 368.9868485575877 0  33.49364924138357 375.0000003247478 0  37.0201480006036 380.9182288389023 0  40.70838066758398 386.7370398875706 0  44.55554644477201 392.4520147396792 0  48.55872386086904 398.0588135419111 0  52.71487295981296 403.5531785693063 0  57.02083760525949 408.9309374584583 0  61.47334790862246 414.1880064170849 0  66.06902271205095 419.320393319588 0  70.80437211216579 424.3242006890749 0  75.67580013809859 429.195628692521 0  80.6796075127923 433.930978054209 0  85.81199439754931 438.5266528008431 0  91.06906334717917 442.9791630582355 0  96.44682221438322 447.2851276501571 0  101.9411872243843 451.441276702356 0  107.5479859945825 455.4444540643537 0  113.2629608446994 459.2916198108319 0  119.0817718768376 462.9798524393601 0  125.0000003647644 466.5063511567065 0  131.0131521012763 469.8684379967393 0  137.1166607840049 473.0635598376539 0  143.3058914748804 476.0892903390826 0  149.5761441732679 478.9433318113714 0  155.9226573130112 481.6235169255377 0  162.3406114779862 484.1278104026658 0  168.8251329570439 486.4543105138039 0  175.3712974805475 488.601250542119 0  181.9741340135204 490.5670001408953 0  188.6286284005059 492.3500665318597 0  195.3297273788229 493.9490956972913 0  202.0723421640089 495.3628733414168 0  208.8513525529672 496.5903258712308 0  215.6616106544547 497.6305211744985 0  222.4979448327038 498.4826693384772 0  229.3551637102845 499.1461232581612 0  236.2280599621369 499.6203791111485 0  243.1114144470173 499.9050767573145 0  155.2373389820306 474.8197567317462 0  25.36256300907667 153.9152755065208 0  432.3709625126712 412.6214396304305 0  6.013151705810699 246.637913163471 0  246.6379131630491 493.986848294322 0  338.6995838441862 22.68244767887072 0  477.3175523131281 338.6995838660569 0  493.9868482700757 246.6379131399102 0  246.6201155078769 6.218451882810491 0  417.6179310263282 72.7156044707053 0  102.2232990934413 445.0100869616822 0  63.66330858966404 92.20354579482142 0  391.3105220491464 50.73522820883105 0  72.79295043967942 418.0702734974704 0  448.290574428537 108.25674339002 0  402.4604651193511 440.7462829841712 0  97.55317348421397 59.11376320116034 0  136.7376477664901 33.58246472647134 0  363.3288394375288 465.6947312928271 0  44.0678766556007 381.0860953771871 0  469.6905266180034 142.3890690100806 0  22.68244791668644 338.6995843487432 0  338.699584349159 477.317552078365 0  173.389488083762 18.6681884918202 0  483.4809734778481 179.7121987795732 0  13.50237455842738 306.4709525540879 0  305.9825168523021 487.24416992
[...]
<PointData  Vectors="f_12"> 
<DataArray  type="Float64"  Name="f_12"  NumberOfComponents="3" format="ascii">5.5767338814033907e-01 5.2765326484220398e-01 5.0023493623857163e-01  5.7502029834474400e-01 4.7461720127092683e-01 5.8707751020586374e-01  5.4656210882833223e-01 5.2875372663870013e-01 4.6532554262289916e-01  5.2317621221093558e-01 4.8389183173619393e-01 4.1190858903875005e-01  5.4636889469560501e-01 5.2864119731031545e-01 4.6478213341228086e-01  5.4619168091691106e-01 5.2853422484430279e-01 4.6428533504508529e-01  5.4602170257884131e-01 5.2842833371668796e-01 4.6381025659695957e-01  5.4586576284026445e-01 5.2832843747882052e-01 4.6337558328174416e-01  5.4572089885040431e-01 5.2823312842821979e-01 4.6297289462684194e-01  5.4558753071500521e-01 5.2814335048903505e-01 4.6260300781014180e-01  5.4546555562038190e-01 5.2805951255266270e-01 4.6226547337998841e-01  5.4535431530329725e-01 5.2798157884153973e-01 4.6195828661907173e-01  5.4525455881266649e-01 5.2791048269896046e-01 4.6168332940747830e-01  5.4516686739256492e-01 5.2784702182276044e-01 4.6144207476428917e-01  5.4509658242088355e-01 5.2779546966823909e-01 4.6124900354161819e-01  5.4502627277864257e-01 5.2774337386691150e-01 4.6105611281611658e-01  5.4498323754165101e-01 5.2771103853801216e-01 4.6093827412275074e-01  5.4494252502348695e-01 5.2768024827802107e-01 4.6082691544244453e-01  5.4491598327475588e-01 5.2765989706134353e-01 4.6075449926925821e-01  5.4490052154015889e-01 5.2764781813272110e-01 4.6071248734782194e-01  5.4489527300487339e-01 5.2764342917479390e-01 4.6069844573463548e-01  5.4490770467993599e-01 5.2765227552734939e-01 4.6073293316104713e-01  5.4493319485989367e-01 5.2767088155787101e-01 4.6080326534600519e-01  5.4496475134773581e-01 5.2769396076305264e-01 4.6089024761870423e-01  5.4500964282344855e-01 5.2772681689496326e-01 4.6101390684358612e-01  5.4507094547876489e-01 5.2777142751209194e-01 4.6118281388097643e-01  5.4514966826284572e-01 5.2782828987956287e-01 4.6139982542172370e-01  5.4523429741631202e-01 5.2788871831762196e-01 4.6163340752859433e-01  5.4533162999900142e-01 5.2795728695999244e-01 4.6190241524170239e-01  5.4544928499858392e-01 5.2803890593693426e-01 4.6222807043608627e-01  5.4557534406881070e-01 5.2812469354821290e-01 4.6257770298528111e-01  5.4571706494194361e-01 5.2821902856870162e-01 4.6297163500530653e-01  5.4587335455534847e-01 5.2832061457380730e-01 4.6340710767550025e-01  5.4604051308032486e-01 5.2842632537374912e-01 4.6387408884396047e-01  5.4622897322743436e-01 5.2854180845263310e-01 4.6440211688868877e-01  5.4643053681407483e-01 5.2866105132016239e-01 4.6496872983090071e-01  5.4664161120686394e-01 5.2878117762324794e-01 4.6556407533982830e-01  5.4687375379093506e-01 5.2890750705291179e-01 4.6622135437587359e-01  5.4712768249538779e-01 5.2903875406895529e-01 4.6694338962936227e-01  5.4739311973815041e-01 5.2916834330959861e-01 4.6770147617601632e-01  5.4766961604214193e-01 5.2929491835927933e-01 4.6849486683777947e-01  5.4796827165768569e-01 5.2942187072194913e-01 4.6935619796407391e-01  5.4828910103195605e-01 5.2954726939903285e-01 4.7028635099974681e-01  5.4862447129026404e-01 5.2966559222125342e-01 4.7126452746528685e-01  5.4898078173911569e-01 5.2977708894833708e-01 4.7231028598982600e-01  5.4935624004761108e-01 5.2987899216674816e-01 4.7341936310554245e-01  5.4975017698213891e-01 5.2996831663851374e-01 4.7459120971870644e-01  5.5016202665056924e-01 5.3004226563173951e-01 4.7582564787870529e-01  5.5060285054862879e-01 5.3009891100127937e-01 4.7715747121463120e-01  5.5106135375846754e-01 5.3013395732278368e-01 4.7855423045385398e-01  5.5154133210588896e-01 5.3014270348296544e-01 4.8003010797357726e-01  5.5204384594076672e-01 5.3012280347784013e-01 4.8158946950974407e-01  5.5256780251704163e-01 5.3006837356233116e-01 4.8323230186702043e-01  5.5312014344152827e-01 5.2997418984401989e-01 4.8498273175277906e-01  5.5369475431620452e-01 5.2983532742481398e-01 4.8682466418758119e-01  5.5429072861278583e-01 5.2964608670324853e-01 4.8875876161068210e-01  5.5491466827857394e-01 5.2939842365460510e-01 4.9080960816256503e-01  5.5556271461247964e-01 5.2908612748566275e-01 4.9296945241153267e-01  5.5623338966880476e-01 5.2870474555783231e-01 4.9523539616619733e-01  5.5691955358329059e-01 5.2825380709132330e-01 4.9758885526893432e-01  5.5841387074706650e-01 5.2701166135176358e-01 5.0285971295845500e-01  5.5918598603357439e-01 5.2624108368833167e-01 5.0565819146700619e-01  5.5997927509303647e-01 5.2534790764991002e-01 5.0859427547842750e-01  5.6080540562147130e-01 5.2431049971375676e-01 5.1171501408869802e-01  5.6165183162377597e-01 5.2311976954274864e-01 5.1499260198136843e-01  5.6251955956584065e-01 5.2176810906739313e-01 5.1843296717575782e-01  5.6340761575433829e-01 5.2022591057192946e-01 5.2205623777492327e-01  5.6431490469692647e-01 5.1848219926266126e-01 5.2586614606559612e-01  5.6523640411175391e-01 5.1652092138919203e-01 5.2986092368302384e-01  5.6616853077786844e-01 5.1432303156220516e-01 5.3404508114379978e-01  5.6711641935687640e-01 5.1184703136632426e-01 5.3846276113706926e-01  5.6806345198580055e-01 5.0909983747454346e-01 5.4306534359123659e-01  5.6901326518679629e-01 5.0603972928196095e-01 5.4789330135279579e-01  5.6996084516776979e-01 5.0263110644803199e-01 5.5296089293567330e-01  5.7089756193799401e-01 4.9885537029184535e-01 5.5825921231835673e-01  5.7181377961004787e-01 4.9468599507817718e-01 5.6378427409928344e-01  5.7270199563949453e-01 4.9009556366978779e-01 5.6953670267599987e-01  5.7355162948520122e-01 4.8504639067978572e-01 5.7551831883366211e-01  5.7435290878900813e-01 4.7949867416321690e-01 5.8173329546612529e-01  5.7509211668438598e-01 4.7343279609004157e-01 5.8815959061188217e-01  5.7575130613379677e-01 4.6686623881246286e-01 5.9473625993278312e-01  5.7631856763345568e-01 4.5966132921099156e-01 6.0153321787431513e-01  5.7677348215585789e-01 4.5187100276049602e-01 6.0845296951333916e-01  5.7709878113744018e-01 4.4348011505084872e-01 6.1545501081159859e-01  5.7727371497161095e-01 4.3448344890128027e-01 6.2247940031055549e-01  5.7727965073958265e-01 4.2491415911169422e-01 6.2944054462959187e-01  5.7710066695224327e-01 4.1481904763638755e-01 6.3624581085228260e-01  5.7672478584405029e-01 4.0427767169690121e-01 6.4278889490165259e-01  5.7614898306527285e-01 3.9339584253010523e-01 6.4895923000820888e-01  5.7537314518403693e-01 3.8230968519798553e-01 6.5464248424560845e-01  5.7441404009036656e-01 3.7120361053559553e-01 6.5972965065869427e-01  5.7329849180599712e-01 3.6027818237380438e-01 6.6413743521420443e-01  5.7206810918686768e-01 3.4978472569714286e-01 6.6780417929401659e-01  5.7076103605012884e-01 3.3985081205846057e-01 6.7074369814724233e-01  5.6943634903069940e-01 3.3071384756875127e-01 6.7297815813650208e-01  5.6817676628579339e-01 3.2270656366220857e-01 6.7455050781699022e-01  5.6703496843577261e-01 3.1592284687982530e-01 6.7557976128321540e-01  5.6606301483432020e-01 3.1047002462540269e-01 6.7619020698916465e-01  5.6536530023191001e-01 3.0674418811576515e-01 6.7647714187118668e-01  5.6498358573431484e-01 3.0483688914351043e-01 6.7654004048394079e-01  5.6492166479232031e-01 3.0471385391410161e-01 6.7643937556873479e-01  5.6532942179072165e-01 3.0719150590904470e-01 6.7610813345604792e-01  5.6618351254802302e-01 3.1234597432664452e-01 6.7540035666343445e-01  5.6753709140544195e-01 3.2091110665618616e-01 6.7393927307992474e-01  5.6932299809479525e-01 3.3341958766013619e-01 6.7105177634104163e-01  5.7140303833138995e-01 3.5061207482560708e-01 6.6567549140242821e-01  5.7343216891849191e-01 3.7274067816209938e-01 6.5644210087597332e-01  5.7487134324795774e-01 3.9949904944375658e-01 6.4187610952993224e-01  5.7499423756514834e-01 4.2981509614801056e-01 6.2071870336279378e-01  5.7306735048877167e-01 4.6105999127891156e-01 5.9289192539710012e-01  5.6864521468403972e-01 4.8922624992510882e-01 5.6024433806146656e-01  5.6183400761187829e-01 5.0988151272432813e-01 5.2602605052298168e-01  5.5346712199358783e-01 5.2047258776410410e-01 4.9355668847380407e-01  5.4460079518655802e-01 5.2055449485893535e-01 4.6530888524524827e-01  5.3627961532858515e-01 5.1230358857839320e-01 4.4243882944648943e-01  5.2905736760340383e-01 4.9897577078606070e-01 4.2488617735552764e-01  5.1873146455108898e-01 4.6969031501947212e-01 4.0302643909745023e-01  5.1484218421211503e-01 4.5588316056341022e-01 3.9553001905867058e-01  5.1231893996751987e-01 4.4544608990906054e-01 3.9112566912364066e-01  5.1039524669153613e-01 4.3705554738715247e-01 3.8792606442104915e-01  5.0902327832391947e-01 4.3078403473311705e-01 3.8571588501554999e-01  5.0815180198655596e-01 4.2665680659745636e-01 3.8435868732589501e-01  5.0769689618228531e-01 4.2445956086724479e-01 3.8366281301542104e-01  5.0762707638483295e-01 4.2411709999029223e-01 3.8355910256453479e-01  5.0793551182325780e-01 4.2560928126643321e-01 3.8403137627861561e-01  5.0858077257755485e-01 4.2869051521660906e-01 3.8503253207559407e-01  5.0972533509038676e-01 4.3402091403771603e-01 3.8684311296078200e-01  5.1133240531939195e-01 4.4118753678236949e-01 3.8948154747258490e-01  5.1348702583095984e-01 4.5026818587907586e-01 3.9317991038907901e-01  5.1625926959734336e-01 4.6109474540295042e-01 3.9817571617607028e-01  5.1984217966632140e-01 4.7368808229936071e-01 4.0503525932888129e-01  5.2436706668067845e-01 4.8746207603907582e-01 4.1430048540538861e-01  5.2986365371115363e-01 5.0110636365561512e-01 4.2648258736857453e-01  5.3630252689409730e-01 5.1295618006280530e-01 4.4203664772751267e-01  5.4350433435137768e-01 5.2092653890542351e-01 4.6132126296799802e-01  5.5106043038720420e-01 5.2302741843340328e-01 4.8419326468582696e-01  5.5839811715187615e-01 5.1791125338430533e-01 5.1005024748377603e-01  5.6484060401440805e-01 5.0602716330406006e-01 5.3715266559594321e-01  5.6985990238639095e-01 4.8900295432189289e-01 5.6342414160468735e-01  5.7329566324880843e-01 4.6897056380375374e-01 5.8732025403106680e-01  5.7527188019079312e-01 4.4808420765575857e-01 6.0777715168412638e-01  5.7607723299387159e-01 4.2813341233431812e-01 6.2430225800010297e-01  5.7607836357415909e-01 4.1018635606626508e-01 6.3709561624984312e-01  5.7560568174797822e-01 3.9482492713732809e-01 6.4664008750891389e-01  5.7491105739965231e-01 3.8210121355677390e-01 6.5360834105059029e-01  5.7417015545413852e-01 3.7191496740868507e-01 6.5859436553107731e-01  5.7348965438355270e-01 3.6403274158684368e-01 6.6209685939890328e-01  5.7294257840569163e-01 3.5829329142607041e-01 6.6446496596068905e-01  5.7255282132227037e-01 3.5440755937076618e-01 6.6599643917157969e-01  5.7233667355586626e-01 3.5223640571880122e-01 6.6684820500561881e-01  5.7226285103139130e-01 3.5137000262278439e-01 6.6722106027508754e-01  5.7234950752033964e-01 3.5188302541102523e-01 6.6711751442073286e-01  5.7257828848384229e-01 3.5363645225316775e-01 6.6657486207022898e-01  5.7293029351341818e-01 3.5653281431558692e-01 6.6559888210338847e-01  5.7338242282180540e-01 3.6047551933993077e-01 6.6417789945589512e-01  5.7390536230446587e-01 3.6534584101923395e-01 6.6229929365323537e-01  5.7445892241793750e-01 3.7091414537815376e-01 6.5999877011143460e-01  5.7501906236999267e-01 3.7709406950132657e-01 6.5725809681038194e-01  5.7556636143295647e-01 3.8385571582982958e-01 6.5403949555817575e-01  5.7606600580650880e-01 3.9092942904684613e-01 6.5043068951807947e-01  5.7649948945434704e-01 3.9820982688222345e-01 6.4645624364755794e-01  5.7685500419632807e-01 4.0561294672105458e-01 6.4214564567553722e-01  5.7712286299040305e-01 4.1307873549795759e-01 6.3751962281244057e-01  5.7729014250059496e-01 4.2035568781112281e-01 6.3272889565721224e-01  5.7736221191036141e-01 4.2753204438670178e-01 6.2773299538005223e-01  5.7734113007853993e-01 4.3445998564726557e-01 6.2264406086479640e-01  5.7722467936510169e-01 4.4116671959620096e-01 6.1745069307917000e-01  5.7702613135387448e-01 4.4756043198817447e-01 6.1225169913395139e-01  5.7674969874190007e-01 4.5361003022385243e-01 6.0709028778776952e-01  5.7640293982748214e-01 4.5934319738276341e-01 6.0196684509847076e-01  5.7599324170857025e-01 4.6475786904412464e-01 5.9690578741614075e-01  5.7553052009330896e-01 4.6984400773176155e-01 5.9194086620408115e-01  5.7447030277373146e-01 4.7908355453528340e-01 5.8233155648969714e-01  5.7388765353985538e-01 4.8324742714566482e-01 5.7771871045541934e-01  5.7327464226404612e-01 4.8714239382637708e-01 5.7322110578273533e-01  5.7264004947058489e-01 4.9076675806522380e-01 5.6886159529485569e-01  5.7198733748668262e-01 4.9413725656494950e-01 5.6463752800001688e-01  5.7132039787470523e-01 4.9727022978240765e-01 5.6054641841890329e-01  5.7064292269493655e-01 5.0017796385419044e-01 5.5658868313006327e-01  5.6995848637655078e-01 5.0287411210672506e-01 5.5276305242367407e-01  5.6926950145799149e-01 5.0537203052616519e-01 5.4906587617022296e-01  5.6857856863336231e-01 5.0768368852988821e-01 5.4549470501313702e-01  5.6788792941914701e-01 5.0981873255339616e-01 5.4204842127583841e-01  5.6720104295270490e-01 5.1178849090254297e-01 5.3872711757236491e-01  5.6651514984255869e-01 5.1361151839645713e-01 5.3550977003598810e-01  5.6583334186207401e-01 5.1529409096533529e-01 5.3239989350211692e-01  5.6516124059231598e-01 5.1683490146060540e-01 5.2941359071220651e-01  5.6448993774702139e-01 5.1826290977062561e-01 5.2650501456544307e-01  5.6382697527542147e-01 5.1957290109145471e-01 5.2369872585827193e-01  5.6317887543257572e-01 5.2076293701427967e-01 5.2101381851858042e-01  5.6253726513199154e-01 5.2185418520448157e-01 5.1841244624578686e-01  5.6190524014169718e-01 5.2285305090113154e-01 5.1589760777216664e-01  5.6128279832184191e-01 5.2376268000088744e-01 5.1346775209969897e-01  5.6067141484955973e-01 5.2458843481318840e-01 5.1112302303084278e-01  5.6006972516242115e-01 5.2533849977388236e-01 5.0885366515437858e-01  5.5947801045749190e-01 5.2601681326167748e-01 5.0665786764702547e-01  5.5890036270166932e-01 5.2662473815824540e-01 5.0454658651699558e-01  5.5833341843642159e-01 5.2717005758048330e-01 5.0250465830004321e-01  5.5777534150747277e-01 5.2765959733320311e-01 5.0052218619334898e-01  5.5723368288290065e-01 5.2809002238780389e-01 4.9862362729473214e-01  5.5670026836001563e-01 5.2847180922777215e-01 4.9677800150528056e-01  5.5617877837874397e-01 5.2880644845270186e-01 4.9499503546605911e-01  5.5566998479756946e-01 5.2909637876787374e-01 4.9327576723320660e-01  5.5517293643061028e-01 5.2934526461854636e-01 4.9161494440421039e-01  5.5468789945606900e-01 5.2955615771144060e-01 4.9001149667034810e-01  5.5421368687855177e-01 5.2973210466802412e-01 4.8845997967336635e-01  5.5374879944793054e-01 5.2987610686769027e-01 4.8695399350505564e-01  5.5330016945211713e-01 5.2998897293274616e-01 4.8551421400893252e-01  5.5286470637676621e-01 5.3007389993026888e-01 4.8412941907320856e-01  5.5243433875627701e-01 5.3013444867566895e-01 4.8277273896391665e-01  5.5201920082158917e-01 5.3017121414237445e-01 4.8147496530435413e-01  5.5161841009133683e-01 5.3018638598884216e-01 4.8023224724437624e-01  5.5122719024569822e-01 5.3018243012417188e-01 4.7902845724828347e-01  5.5084833506682684e-01 5.3016118158959147e-01 4.7787114723881269e-01  5.5047925091852623e-01 5.3012374491881964e-01 4.7675192492334195e-01  5.5012566897098070e-01 5.3007309079678866e-01 4.7568660952017627e-01  5.4978113950370855e-01 5.3000926844802154e-01 4.7465561627101832e-01  5.4944954953529068e-01 5.2993480220464595e-01 4.7366945079414535e-01  5.4912837143917126e-01 5.2985055718450014e-01 4.7271982521855899e-01  5.4881670800945370e-01 5.2975754891808735e-01 4.7180352780789020e-01  5.4852057106779006e-01 5.2965856853155113e-01 4.7093793938458406e-01  5.4823698974443047e-01 5.2955436251718924e-01 4.7011325317379993e-01  5.4796084587120919e-01 5.2944419561071909e-01 4.6931414877314992e-01  5.4769884625394605e-01 5.2933164089837759e-01 4.6855957133379383e-01  5.4744994943926439e-01 5.2921744485487709e-01 4.6784605800949802e-01  5.4721142831229819e-01 5.2910149696002695e-01 4.6716509551862739e-01  5.4698348829242505e-01 5.2898482445668382e-01 4.6651698774486705e-01  5.4676929285428932e-01 5.2886983133315657e-01 4.6591025409079478e-01  5.5070179788784335e-01 5.3014833769443204e-01 4.7742574859217313e-01  5.7516049057531449e-01 3.7878564045932461e-01 6.5647265450118608e-01  5.4619629210085852e-01 5.2852259392292011e-01 4.6431004762886036e-01  5.7530213920441631e-01 4.7205903790104492e-01 5.8970710963290396e-01  5.4671565947682654e-01 5.2884048115290949e-01 4.6575850958490878e-01  5.6614823621780985e-01 3.1266139023360623e-01 6.7515416167924402e-01  5.5001839822582710e-01 5.3001870275337803e-01 4.7539401706514600e-01  5.5809370352410659e-01 5.2730729170512336e-01 5.0171418116008248e-01  5.2101703741234828e-01 4.7746409423321001e-01 4.0744815685963748e-01  5.7574033969994576e-01 3.8730184818169056e-01 6.5214545561879500e-01  5.5450192827832101e-01 5.2962843738518806e-01 4.8940128750108786e-01  5.7285063160319516e-01 3.5802196018367433e-01 6.6442818497104128e-01  5.6985021872884667e-01 3.3350683438874679e-01 6.7234106668098959e-01  5.5752520285253049e-01 5.2786359162562724e-01 4.9964248887354057e-01  5.7658399079799905e-01 4.5541586034636711e-01 6.0535381453828696e-01  5.4532921584426453e-01 5.2795613359948501e-01 4.6189528093714166e-01  5.7453148946261068e-01 4.5470185634376947e-01 6.0112168951170575e-01  5.3362523091197367e-01 5.0842532393305673e-01 4.3549167703140085e-01  5.4495683468785971e-01 5.2768974261421642e-01 4.6086719904673884e-01  5.6159018507393421e-01 5.2332119219198769e-01 5.1466296686450252e-01  5.7231746544493445e-01 4.9214880075937067e-01 5.6699910031597656e-01  5.6621204460614505e-01 5.1437705284542945e-01 5.3411568862375802e-01  5.4501169995290610e-01 5.2773221304856199e-01 4.6101635746687708e-01  5.1091918881616172e-01 4.3940777522550684e-01 3.8877820520814571e-01  5.6679670855272812e-01 5.1270870674559144e-01 5.3695514772374020e-01  5.6965837139864017e-01 5.0398376613270868e-01 5.5113764499474827e-01  5.4536870036829788e-01 5.2799179366354176e-01 4.6199790115511197e-01  5.4871100519200255e-01 5.2972376063728677e-01 4.7149380639535299e-01  5.7733273191673062e-01 4.2366017823481561e-01 6.3045724082734655e-01  5.7431277330731090e-01 4.4081333054836630e-01 6.1108304979485706e-01  5.5290562260387133e-01 5.3001569280947736e-01 4.8430036080684769e-01  5.4753308385258614e-01 5.2923366013021877e-01 4.6810240945700138e-01  5.0801657586658011e-01 4.2602351080846895e-01 3.8413658903890707e-01  5.6307991784058598e-01 5.2081127547177819e-01 5.2070906533407901e-01  5.7234716803639596e-01 4.9231578545539179e-01 5.6694006129598962e-01  5.4584318440482527e-01 5.2831380546636064e-01 4.6331266122036086e-01  5.6548005443336324e-01 3.0736345671183390e-01 6.7643437693088471e-01  5.7261697819967494e-01 3.5394491782874860e-01 6.6648040026356281e-01  5.4761692709727749e-01 5.2929501111541266e-01 4.6832424485271795e-01  5.5228050867161826e-01 5.3015137710517835e-01 4.8229016936440988e-01  5.7688112804660285e-01 4.5094623700009490e-01 6.0939080463271567e-01  5.5035036547510074e-01 5.2121140580632597e-01 4.8338223419611692e-01  5.5522876582360114e-01 5.2925308534883919e-01 4.9185325165552607e-01  5.4511462212379536e-01 5.2780403039521040e-01 4.6130236475010278e-01  5.5137008128762943e-01 5.3014317789317844e-01 4.7950167787150461e-01  5.1132691386113349e-01 4.4117402603329842e-01 3.8946263622856109e-01  5.7178532821181605e-01 3.5578387282853380e-01 6.6341747967036502e-01  5.6047299068165957e-01 5.2474316200393056e-01 5.1045034468669137e-01  5.7719516481465583e-01 4.1909636272263873e-01 6.3342009900190122e-01  5.4965318923507422e-01 5.2998202220000479e-01 4.7427428220031592e-01  5.4682940013187620e-01 5.2888460245784474e-01 4.6609504057249951e-01  5.5920262934468923e-01 5.2631342631098388e-01 5.0564738516180685e-01  5.6259255697312593e-01 5.1015664862991772e-01 5.2784887797382141e-01  5.6349620721171101e-01 5.2019155676455420e-01 5.2232136043438793e-01  5.7666497179695519e-01 4.0150182414049385e-01 6.4456532887893114e-01  5.4851519991831976e-01 5.2962887591112784e-01 4.7094481183990666e-01  5.5596651957