<?xml version="1.0"?>
<VTKFile type="UnstructuredGrid"  version="0.1"  >
<UnstructuredGrid>
<Piece  NumberOfPoints="4940" NumberOfCells="9650">
<Points>
<DataArray  type="Float64"  NumberOfComponents="3"  format="ascii">500 250 0  0 250 0  250 500 0  250 0 0  256.8885856082646 499.9050767557906 0  263.7719401218049 499.6203791065173 0  270.6448364229772 499.1461232471188 0  277.5020553257866 498.4826693209355 0  284.3383895508592 497.6305211460281 0  291.1486476865662 496.5903258312597 0  297.9276581259182 495.3628732847843 0  304.6702729675493 493.9490956196674 0  311.3713719748657 492.3500664368026 0  318.0258664141369 490.5670000199653 0  324.6287029687753 488.6012504015818 0  331.1748675330201 486.4543103455647 0  337.6593890460416 484.1278102064655 0  344.0773432429536 481.6235166997244 0  350.4238564271474 478.9433315480048 0  356.694109139292 476.0892900492477 0  362.88333985546 473.0635595140469 0  368.9868485575419 469.8684376402048 0  375.0000003153078 466.5063507640667 0  380.9182288257928 462.9798520074548 0  386.7370398729688 459.2916193419558 0  392.4520147244077 455.444453565817 0  398.0588135356345 451.4412761437442 0  403.5531785622926 447.285127045646 0  408.9309374414144 442.9791624087773 0  414.1880064015299 438.5266521049243 0  419.3203932989752 433.9309773069245 0  424.324200661095 429.1956279150535 0  429.1956286596235 424.3241998957182 0  433.9309780058756 419.3203925397119 0  438.5266527445345 414.1880056671062 0  442.9791630130591 408.9309367076756 0  447.2851276060475 403.5531778422888 0  451.4412766621026 398.0588128303826 0  455.4444540361634 392.4520140460735 0  459.2916197786263 386.7370392045948 0  462.9798524073514 380.9182281752347 0  466.5063511234856 374.9999996927758 0  469.8684379657123 368.9868479560565 0  473.0635598144817 362.8833392617846 0  476.0892903190255 356.6941085676214 0  478.9433317963513 350.4238558609745 0  481.6235169154735 344.0773427117675 0  484.12781039012 337.6593885555221 0  486.4543105028062 331.1748670749914 0  488.601250531677 324.6287025528375 0  490.5670001317469 318.0258660188321 0  492.3500665291326 311.3713716102628 0  493.949095695951 304.6702726271575 0  495.3628733416623 297.9276578347343 0  496.5903258712341 291.1486474470129 0  497.6305211749058 284.3383893426084 0  498.4826693388848 277.502055163614 0  499.1461232580606 270.6448362909296 0  499.6203791109319 263.7719400417897 0  499.9050767571306 256.8885855596534 0  499.9050767559877 243.1114143988867 0  499.6203791069493 236.2280598860241 0  499.1461232485393 229.3551635941651 0  498.4826693235677 222.4979446979962 0  497.6305211491849 215.6616104719064 0  496.5903258357701 208.8513523404629 0  495.3628732906988 202.0723419043604 0  493.9490956264813 195.3297270628552 0  492.3500664487791 188.6286280724281 0  490.5670000344809 181.9741336371959 0  488.6012504175981 175.3712970824318 0  486.4543103623226 168.8251325157939 0  484.1278102222298 162.3406109960628 0  481.6235167152198 155.9226567951971 0  478.9433315621651 149.5761436051346 0  476.0892900516498 143.3058908657982 0  473.063559513628 137.1166601437124 0  469.8684376406648 131.0131514433083 0  466.5063507675389 124.9999996907064 0  462.9798520124137 119.0817711822745 0  459.2916193464549 113.2629601339176 0  455.4444535642773 107.5479852733717 0  451.4412761528674 101.9411864767781 0  447.2851270583545 96.44682145403524 0  442.9791624165781 91.06906256805769 0  438.5266521117469 85.81199360630404 0  433.9309773156125 80.67960671046254 0  429.1956279150353 75.67579933888632 0  424.3241998888952 70.80437133373906 0  419.3203925223282 66.06902197812161 0  414.1880056411937 61.47334723289828 0  408.9309366751728 57.0208369601728 0  403.5531778009394 52.71487236176898 0  398.058812796452 48.55872331295853 0  392.4520140187753 44.55554594490843 0  386.7370391799677 40.70838020528396 0  380.9182281475119 37.02014757560744 0  374.9999996718656 33.49364886444181 0  368.9868479340393 30.13156202237255 0  362.8833392380029 26.93644017348339 0  356.6941085456942 23.91070967062674 0  350.4238558420009 21.0566681953261 0  344.0773426899492 18.37648307566465 0  337.6593885328982 15.87218960140942 0  331.1748670549786 13.54568949032341 0  324.6287025315056 11.39874946165088 0  318.0258660010876 9.432999863235466 0  311.3713716017894 7.649933468721599 0  304.6702726190621 6.050904302234756 0  297.9276578269805 4.637126656823085 0  291.148647441857 3.409674127905504 0  284.3383893425031 2.369478825079682 0  277.502055159398 1.517330660648639 0  270.6448362875833 0.853876741662134 0  263.7719400401456 0.3796208889774277 0  256.8885855592052 0.09492324285704967 0  243.1114143979462 0.09492324403817065 0  236.2280598850882 0.3796208931023841 0  229.3551635938215 0.8538767514891958 0  222.4979446968584 1.517330676558146 0  215.6616104703111 2.369478851036291 0  208.8513523382973 3.409674164591252 0  202.0723419066374 4.637126708856528 0  195.3297270659513 6.050904372824903 0  188.628628074828 7.649933550613184 0  181.9741336377093 9.432999965373938 0  175.3712970793675 11.39874958336037 0  168.8251325057572 13.54568964112298 0  162.340610986655 15.87218978129263 0  155.9226567874317 18.37648328793418 0  149.576143602509 21.05666843898663 0  143.3058908718157 23.91070994551046 0  137.1166601505524 26.93644048291054 0  131.0131514451933 30.13156235831508 0  124.9999996848412 33.49364923584736 0  119.0817711715717 37.0201479941652 0  113.2629601211624 40.70838066187849 0  107.5479852622251 44.55554644345162 0  101.9411864693332 48.55872385260452 0  96.44682143286516 52.71487295812284 0  91.06906254351222 57.02083760363669 0  85.81199358272519 61.4733479087879 0  80.67960667988106 66.06902271253972 0  75.67579930062769 70.80437212218331 0  70.80437129287643 75.67580015310926 0  66.06902193673014 80.67960752263491 0  61.47334718684866 85.81199441168215 0  57.02083692524275 91.0690633672404 0  52.71487232786438 96.44682224262129 0  48.55872328070024 101.941187247437 0  44.55554591578033 107.5479860232332 0  40.7083801742321 113.2629608675606 0  37.02014754791168 119.0817718975441 0  33.49364883372994 125.000000381329 0  30.13156199866361 131.0131521097709 0  26.9364401549829 137.1166607985551 0  23.91070965524918 143.3058914868915 0  21.05666818346614 149.576144185037 0  18.37648306853811 155.9226573275967 0  15.8721895918909 162.3406114925245 0  13.54568948170046 168.8251329701392 0  11.39874945301878 175.3712974960928 0  9.432999857087736 181.9741340206533 0  7.649933466342702 188.6286284076045 0  6.050904301250966 195.3297273853278 0  4.637126656808988 202.0723421730917 0  3.409674127767772 208.8513525589684 0  2.369478824521138 215.6616106615248 0  1.517330660909465 222.4979448382452 0  0.8538767414496533 229.355163714981 0  0.3796208887135322 236.2280599646376 0  0.09492324266324204 243.1114144478261 0  0.0949232442452228 256.8885856095658 0  0.3796208935834784 263.7719401236316 0  0.8538767530323526 270.6448364248016 0  1.517330679476544 277.5020553295092 0  2.369478854618649 284.3383895555228 0  3.409674170191892 291.1486476952655 0  4.6371267162381 297.9276581311522 0  6.050904381420935 304.6702729724059 0  7.649933562385399 311.3713719716595 0  9.43299997979841 318.0258664133013 0  11.3987495994252 324.6287029719946 0  13.54568965885832 331.174867545904 0  15.87218979367188 337.6593890464085 0  18.37648329843151 344.0773432384132 0  21.05666844777872 350.423856417535 0  23.91070995156048 356.6941091410045 0  26.93644048988043 362.8833398632205 0  30.13156235982007 368.9868485575877 0  33.49364924138357 375.0000003247478 0  37.0201480006036 380.9182288389023 0  40.70838066758398 386.7370398875706 0  44.55554644477201 392.4520147396792 0  48.55872386086904 398.0588135419111 0  52.71487295981296 403.5531785693063 0  57.02083760525949 408.9309374584583 0  61.47334790862246 414.1880064170849 0  66.06902271205095 419.320393319588 0  70.80437211216579 424.3242006890749 0  75.67580013809859 429.195628692521 0  80.6796075127923 433.930978054209 0  85.81199439754931 438.5266528008431 0  91.06906334717917 442.9791630582355 0  96.44682221438322 447.2851276501571 0  101.9411872243843 451.441276702356 0  107.5479859945825 455.4444540643537 0  113.2629608446994 459.2916198108319 0  119.0817718768376 462.9798524393601 0  125.0000003647644 466.5063511567065 0  131.0131521012763 469.8684379967393 0  137.1166607840049 473.0635598376539 0  143.3058914748804 476.0892903390826 0  149.5761441732679 478.9433318113714 0  155.9226573130112 481.6235169255377 0  162.3406114779862 484.1278104026658 0  168.8251329570439 486.4543105138039 0  175.3712974805475 488.601250542119 0  181.9741340135204 490.5670001408953 0  188.6286284005059 492.3500665318597 0  195.3297273788229 493.9490956972913 0  202.0723421640089 495.3628733414168 0  208.8513525529672 496.5903258712308 0  215.6616106544547 497.6305211744985 0  222.4979448327038 498.4826693384772 0  229.3551637102845 499.1461232581612 0  236.2280599621369 499.6203791111485 0  243.1114144470173 499.9050767573145 0  155.2373389820306 474.8197567317462 0  25.36256300907667 153.9152755065208 0  432.3709625126712 412.6214396304305 0  6.013151705810699 246.637913163471 0  246.6379131630491 493.986848294322 0  338.6995838441862 22.68244767887072 0  477.3175523131281 338.6995838660569 0  493.9868482700757 246.6379131399102 0  246.6201155078769 6.218451882810491 0  417.6179310263282 72.7156044707053 0  102.2232990934413 445.0100869616822 0  63.66330858966404 92.20354579482142 0  391.3105220491464 50.73522820883105 0  72.79295043967942 418.0702734974704 0  448.290574428537 108.25674339002 0  402.4604651193511 440.7462829841712 0  97.55317348421397 59.11376320116034 0  136.7376477664901 33.58246472647134 0  363.3288394375288 465.6947312928271 0  44.0678766556007 381.0860953771871 0  469.6905266180034 142.3890690100806 0  22.68244791668644 338.6995843487432 0  338.699584349159 477.317552078365 0  173.389488083762 18.6681884918202 0  483.4809734778481 179.7121987795732 0  13.50237455842738 306.4709525540879 0  305.9825168523021 487.24416992
[...]
<PointData  Vectors="f_12"> 
<DataArray  type="Float64"  Name="f_12"  NumberOfComponents="3" format="ascii">5.2632858425748197e-01 1.8435192689039517e-01 6.0890173857216379e-01  5.3295019039151026e-01 1.9712214755740420e-01 6.2875426539664936e-01  5.1918051014779265e-01 1.7337346972495427e-01 5.8439392456112338e-01  5.4407993014618850e-01 2.2456119629423235e-01 6.5554527388311601e-01  5.1910909688722229e-01 1.7327860066070391e-01 5.8413314373620828e-01  5.1904648059776726e-01 1.7319573968959315e-01 5.8390418530476651e-01  5.1898767597625162e-01 1.7311804580068063e-01 5.8368897672903608e-01  5.1893672386482093e-01 1.7305092241147574e-01 5.8350232644256639e-01  5.1889183609221778e-01 1.7299190302705655e-01 5.8333776143397253e-01  5.1885335300610569e-01 1.7294139001476944e-01 5.8319657721695795e-01  5.1882123554659565e-01 1.7289928700509591e-01 5.8307868341712310e-01  5.1879508470393287e-01 1.7286502396071399e-01 5.8298265391595216e-01  5.1877535820782417e-01 1.7283918328756262e-01 5.8291019473961381e-01  5.1876244944293104e-01 1.7282226559764280e-01 5.8286277377733986e-01  5.1875938604693250e-01 1.7281830828657699e-01 5.8285149563142735e-01  5.1875627666089619e-01 1.7281407402225563e-01 5.8284013596896900e-01  5.1876863931554018e-01 1.7283030515319384e-01 5.8288553955745270e-01  5.1878234882598240e-01 1.7284813244923292e-01 5.8293595277690546e-01  5.1880407518185845e-01 1.7287649107080766e-01 5.8301579214837285e-01  5.1883216734089788e-01 1.7291319426949409e-01 5.8311898008939822e-01  5.1886617812383617e-01 1.7295767214697158e-01 5.8324384306982768e-01  5.1891016132137779e-01 1.7301541816655006e-01 5.8340517030144068e-01  5.1896144802262645e-01 1.7308289927503684e-01 5.8359314432031273e-01  5.1901642231014167e-01 1.7315529638014421e-01 5.8379448173430282e-01  5.1907897571263051e-01 1.7323791760921248e-01 5.8402334622369445e-01  5.1915072129242723e-01 1.7333304237473174e-01 5.8428550369333498e-01  5.1923203811913843e-01 1.7344129186298821e-01 5.8458222538542570e-01  5.1931680828036886e-01 1.7355442988960804e-01 5.8489115954275139e-01  5.1940871688153467e-01 1.7367757234666692e-01 5.8522560008343871e-01  5.1951155069186161e-01 1.7381605547629814e-01 5.8559913032397881e-01  5.1961900113876214e-01 1.7396133261938732e-01 5.8598876997441929e-01  5.1973487028837473e-01 1.7411878716622420e-01 5.8640810401345811e-01  5.1985835244191325e-01 1.7428744786558598e-01 5.8685409713784231e-01  5.1998757853832800e-01 1.7446485419915528e-01 5.8731983169655777e-01  5.2012760356834353e-01 1.7465828737981726e-01 5.8782326494086734e-01  5.2027412945019125e-01 1.7486188902118840e-01 5.8834880906036524e-01  5.2042551499881695e-01 1.7507346503929128e-01 5.8889040409037963e-01  5.2058702654326006e-01 1.7530074347333324e-01 5.8946662456489785e-01  5.2075859922697720e-01 1.7554391714180589e-01 5.9007695164292040e-01  5.2093534775075467e-01 1.7579612808305989e-01 5.9070381810076422e-01  5.2111718773417648e-01 1.7605741242578926e-01 5.9134674865440118e-01  5.2130876264410064e-01 1.7633481679172319e-01 5.9202185520332506e-01  5.2150961043852528e-01 1.7662794978767585e-01 5.9272719324078771e-01  5.2171633326654065e-01 1.7693205532198464e-01 5.9345057846721450e-01  5.2193137500544995e-01 1.7725102700877277e-01 5.9420024981632302e-01  5.2215373478911398e-01 1.7758362421847329e-01 5.9497243450570869e-01  5.2238294212996850e-01 1.7792941057679873e-01 5.9576519594399335e-01  5.2261852286512089e-01 1.7828791921830034e-01 5.9657667443146800e-01  5.2286447727050855e-01 1.7866571953321633e-01 5.9742009530367701e-01  5.2311596696135176e-01 1.7905549380154462e-01 5.9827872615707489e-01  5.2337451474315599e-01 1.7946001915539087e-01 5.9915732719762704e-01  5.2363981533701898e-01 1.7987900884379099e-01 6.0005460683619494e-01  5.2391175385457334e-01 1.8031265078227565e-01 6.0096982325126358e-01  5.2419187766435593e-01 1.8076377254226544e-01 6.0190777800672179e-01  5.2447804112521534e-01 1.8122920781234017e-01 6.0286093752000458e-01  5.2476981766813058e-01 1.8170856244267222e-01 6.0382758650443324e-01  5.2506901527443084e-01 1.8220511765005779e-01 6.0481329723812749e-01  5.2537411911104059e-01 1.8271669760762552e-01 6.0581280347492905e-01  5.2568449771982817e-01 1.8324246068557939e-01 6.0682354218867118e-01  5.2599809849872603e-01 1.8377870730690896e-01 6.0783951511721412e-01  5.2665437672203508e-01 1.8492097129461482e-01 6.0994347464995469e-01  5.2698722458539105e-01 1.8550927209593021e-01 6.1100072168755815e-01  5.2732464489257436e-01 1.8611210513238965e-01 6.1206544796697504e-01  5.2766885500653471e-01 1.8673368880700356e-01 6.1314404423262259e-01  5.2801680620694724e-01 1.8736899370364327e-01 6.1422701354501263e-01  5.2836908236673474e-01 1.8801900914685610e-01 6.1531560899627158e-01  5.2872568207190695e-01 1.8868440636578088e-01 6.1640962391540721e-01  5.2908620366690406e-01 1.8936443082074764e-01 6.1750747771991965e-01  5.2944995646525972e-01 1.9005808460729010e-01 6.1860686491136718e-01  5.2981669712572865e-01 1.9076512917806213e-01 6.1970682173357439e-01  5.3018740836261136e-01 1.9148767051417884e-01 6.2080990381839585e-01  5.3055920983929528e-01 1.9222033955841375e-01 6.2190749952169322e-01  5.3093463149377640e-01 1.9296812449022371e-01 6.2300687861928394e-01  5.3131178114632316e-01 1.9372762760758855e-01 6.2410216627493387e-01  5.3169059313034905e-01 1.9449876682773026e-01 6.2519307913290145e-01  5.3207049548786511e-01 1.9528054616245094e-01 6.2627787000521340e-01  5.3245133019682456e-01 1.9607267942633561e-01 6.2735593948347623e-01  5.3283294483050547e-01 1.9687498479564264e-01 6.2842678180419143e-01  5.3321500845828029e-01 1.9768680326694191e-01 6.2948939277344551e-01  5.3359665643014820e-01 1.9850630992071067e-01 6.3054134541110551e-01  5.3397808793375423e-01 1.9933392288598467e-01 6.3158317477527903e-01  5.3435805513064016e-01 2.0016715669963100e-01 6.3261135883743413e-01  5.3473779309145109e-01 2.0100842710349956e-01 6.3362948564911670e-01  5.3511461841605801e-01 2.0185177410834160e-01 6.3463035187850902e-01  5.3548981457249334e-01 2.0269999962987140e-01 6.3561747951738268e-01  5.3586261398794732e-01 2.0355126623339437e-01 6.3658897572447215e-01  5.3623263271776944e-01 2.0440456346552424e-01 6.3754398049751348e-01  5.3659935028851491e-01 2.0525854703767357e-01 6.3848137311874364e-01  5.3696198408586082e-01 2.0611110462334767e-01 6.3939932638902008e-01  5.3732084129227187e-01 2.0696283520245770e-01 6.4029895117981994e-01  5.3767499554926335e-01 2.0781125296073982e-01 6.4117812140017749e-01  5.3802418929827112e-01 2.0865546385653902e-01 6.4203653825845397e-01  5.3836879594900866e-01 2.0949619722304638e-01 6.4287539765279034e-01  5.3870725793776697e-01 2.1032917201199247e-01 6.4369132809029683e-01  5.3903776956532101e-01 2.1114959399842348e-01 6.4448039256178802e-01  5.3936360354217372e-01 2.1196535417542434e-01 6.4525071746116691e-01  5.3968320147410398e-01 2.1277208165030154e-01 6.4599914998139596e-01  5.3999284259910318e-01 2.1355997377532099e-01 6.4671735636767202e-01  5.4029679059759761e-01 2.1433955453633879e-01 6.4741560481676363e-01  5.4059481242530483e-01 2.1510970791987971e-01 6.4809404989876529e-01  5.4088049229653856e-01 2.1585344470859497e-01 6.4873827918135751e-01  5.4115837215637375e-01 2.1658221027266206e-01 6.4935935251073551e-01  5.4142685505863986e-01 2.1729113029900524e-01 6.4995402325801543e-01  5.4168690565881594e-01 2.1798240786310663e-01 6.5052510831715293e-01  5.4193682220904216e-01 2.1865104605213212e-01 6.5106924296154189e-01  5.4217694289594898e-01 2.1929748709857727e-01 6.5158774070998604e-01  5.4240645489292572e-01 2.1991902681854381e-01 6.5207936177758030e-01  5.4262480500472754e-01 2.2051366551302023e-01 6.5254346694397147e-01  5.4283319638976335e-01 2.2108428639546526e-01 6.5298310368235668e-01  5.4303131844664521e-01 2.2162958797214299e-01 6.5339802415866588e-01  5.4321777887062594e-01 2.2214521047948915e-01 6.5378591257971841e-01  5.4339159195526276e-01 2.2262807496107659e-01 6.5414511569493772e-01  5.4355282493260104e-01 2.2307786875926999e-01 6.5447631096016212e-01  5.4370358920237771e-01 2.2350015672052892e-01 6.5478422115712120e-01  5.4384132477339864e-01 2.2388733489587911e-01 6.5506398842014779e-01  5.4396739342558387e-01 2.2424288009005311e-01 6.5531883404862934e-01  5.4417580421734302e-01 2.2483311355318542e-01 6.5573746891961460e-01  5.4427685513199220e-01 2.2512045923347146e-01 6.5593925886957738e-01  5.4434487492091843e-01 2.2531418966866709e-01 6.5607461525188049e-01  5.4440754366699173e-01 2.2549304503986622e-01 6.5619903904227783e-01  5.4445849569447735e-01 2.2563865818591583e-01 6.5629997900487480e-01  5.4449499496749620e-01 2.2574306676285416e-01 6.5637217934254233e-01  5.4451788307612936e-01 2.2580852927509598e-01 6.5641742952296545e-01  5.4452910369658558e-01 2.2584063130698687e-01 6.5643960164879722e-01  5.4452687737072225e-01 2.2583419209636180e-01 6.5643523742453136e-01  5.4451914225809694e-01 2.2581215962203463e-01 6.5641990335643241e-01  5.4448738711376277e-01 2.2572108214910702e-01 6.5635725062779759e-01  5.4444631190278248e-01 2.2560352322808022e-01 6.5627601905024613e-01  5.4439279321144263e-01 2.2545055113749782e-01 6.5616999665201403e-01  5.4432991702815881e-01 2.2527115224183358e-01 6.5604509559646051e-01  5.4425308284900920e-01 2.2505229696102089e-01 6.5589206963389424e-01  5.4416086773590511e-01 2.2479012194950992e-01 6.5570787102168104e-01  5.4405835656595769e-01 2.2449945287979678e-01 6.5550230181941993e-01  5.4394426939258089e-01 2.2417683548469078e-01 6.5527256832339542e-01  5.4381884890196031e-01 2.2382325401585032e-01 6.5501885716018504e-01  5.4368174949320824e-01 2.2343802747460750e-01 6.5474016693905257e-01  5.4353184437949831e-01 2.2301836152606261e-01 6.5443379723936945e-01  5.4337004166997105e-01 2.2256711174063826e-01 6.5410124608997533e-01  5.4319839084016830e-01 2.2209043265540013e-01 6.5374626785902934e-01  5.4301652279484847e-01 2.2158764818148485e-01 6.5336774246062701e-01  5.4282383092485853e-01 2.2105744106900602e-01 6.5296399225369206e-01  5.4262073530172339e-01 2.2050139499039390e-01 6.5253544791216833e-01  5.4240732805992520e-01 2.1992017122616264e-01 6.5208184536881830e-01  5.4218417355644533e-01 2.1931574893744535e-01 6.5160392466725969e-01  5.4195127185565983e-01 2.1868854843469449e-01 6.5110121181565783e-01  5.4170915977951439e-01 2.1804044604156519e-01 6.5057440516236886e-01  5.4145810050598508e-01 2.1737257315124320e-01 6.5002360194344466e-01  5.4119917444045929e-01 2.1668821952276296e-01 6.4945074013243520e-01  5.4093243110361700e-01 2.1598788833661037e-01 6.4885547766300045e-01  5.4065751854111932e-01 2.1527111442417365e-01 6.4823661978767833e-01  5.4037398708711626e-01 2.1453702701016680e-01 6.4759269231359573e-01  5.4008323377436229e-01 2.1378974687720986e-01 6.4692638857938711e-01  5.3978582568441524e-01 2.1303106822477907e-01 6.4623862186822978e-01  5.3948230939428732e-01 2.1226272413082667e-01 6.4553027579538169e-01  5.3917295083597505e-01 2.1148572645788868e-01 6.4480157935476246e-01  5.3885852137745671e-01 2.1070231853486468e-01 6.4405409601819996e-01  5.3853592690136076e-01 2.0990515752862304e-01 6.4327992952425983e-01  5.3820936548082643e-01 2.0910481851992080e-01 6.4248899565396456e-01  5.3787993116707256e-01 2.0830439846636228e-01 6.4168357006642218e-01  5.3754461360636152e-01 2.0749660058982908e-01 6.4085604559791343e-01  5.3720484129851798e-01 2.0668523961630184e-01 6.4000972894704122e-01  5.3686116582271048e-01 2.0587187089702183e-01 6.3914562366438477e-01  5.3651670525129469e-01 2.0506395126590357e-01 6.3827153045463159e-01  5.3616640089281231e-01 2.0424984950619227e-01 6.3737429735360895e-01  5.3581460768080280e-01 2.0343990622103020e-01 6.3646495400836611e-01  5.3546085000676269e-01 2.0263284272376419e-01 6.3554211072123823e-01  5.3510595142080419e-01 2.0183107639057432e-01 6.3460794179084357e-01  5.3474802477324568e-01 2.0102997259620889e-01 6.3365724076803820e-01  5.3438903634559032e-01 2.0023425749196136e-01 6.3269527341738552e-01  5.3402966301151578e-01 1.9944543899333533e-01 6.3172368514827826e-01  5.3366989556212896e-01 1.9866347795918718e-01 6.3074251725110986e-01  5.3331027902128469e-01 1.9788947707243831e-01 6.2975326367031803e-01  5.3259022148527180e-01 1.9636269876188625e-01 6.2774714222721462e-01  5.3223176242537051e-01 1.9561397378517376e-01 6.2673584714864672e-01  5.3187404288119189e-01 1.9487432629409859e-01 6.2571840879895546e-01  5.3151773551443704e-01 1.9414498590727577e-01 6.2469671703929563e-01  5.3116308568484549e-01 1.9342637156495993e-01 6.2367169520712329e-01  5.3081018341529362e-01 1.9271853768474786e-01 6.2264369827649457e-01  5.3045952350065906e-01 1.9202234169307797e-01 6.2161435464388992e-01  5.3011125045682839e-01 1.9133789795621767e-01 6.2058423009022057e-01  5.2976563819058275e-01 1.9066558670854428e-01 6.1955435445261442e-01  5.2942298574633440e-01 1.9000580511272522e-01 6.1852578733288444e-01  5.2908367661352262e-01 1.8935913236687824e-01 6.1749995834534765e-01  5.2874806888173009e-01 1.8872595413444981e-01 6.1647811017658449e-01  5.2841581968363915e-01 1.8810546326841412e-01 6.1545949888149620e-01  5.2808688322106190e-01 1.8749735435530646e-01 6.1444421650260783e-01  5.2776330033792629e-01 1.8690513752553781e-01 6.1343881929316357e-01  5.2744202029984222e-01 1.8632305665038437e-01 6.1243407064804678e-01  5.2712498666901431e-01 1.8575440026010190e-01 6.1143631054360414e-01  5.2681463618518221e-01 1.8520328612735337e-01 6.1045337383200404e-01  5.2650824719114908e-01 1.8466461926429614e-01 6.0947718896980851e-01  5.2620671150697707e-01 1.8413959742358577e-01 6.0851068463554947e-01  5.2590994816199055e-01 1.8362798195014202e-01 6.0755396574320308e-01  5.2561856541631868e-01 1.8313049561339989e-01 6.0660925631794460e-01  5.2533204696681746e-01 1.8264598624088094e-01 6.0567516297227775e-01  5.2505054537558882e-01 1.8217450547417233e-01 6.0475246666293370e-01  5.2477560042574756e-01 1.8171836764455065e-01 6.0384649823842929e-01  5.2450610456674784e-01 1.8127543717217548e-01 6.0295391575314672e-01  5.2424114228319196e-01 1.8084392225347867e-01 6.0207202907040080e-01  5.2398397759077586e-01 1.8042898712157082e-01 6.0121186605187882e-01  5.2373123048950376e-01 1.8002482492062569e-01 6.0036252693369641e-01  5.2348456671426657e-01 1.7963387431808434e-01 5.9952979370037451e-01  5.2324428038919180e-01 1.7925637467743744e-01 5.9871498650685506e-01  5.2301001897784505e-01 1.7889151036166523e-01 5.9791716140886053e-01  5.2278195084178203e-01 1.7853929938609617e-01 5.9713716787687410e-01  5.2255954090430456e-01 1.7819867956021496e-01 5.9637342889056777e-01  5.2234212808817515e-01 1.7786841645405999e-01 5.9562390557275124e-01  5.2213309465798030e-01 1.7755348041931085e-01 5.9490049752914054e-01  5.2193088653913089e-01 1.7725122427812548e-01 5.9419813259691845e-01  5.2173164016139917e-01 1.7695560481592817e-01 5.9350361157182030e-01  5.2154035646012686e-01 1.7667397924999970e-01 5.9283453056027313e-01  5.2135659165394166e-01 1.7640545261506202e-01 5.9218960316905433e-01  5.2117802314654738e-01 1.7614634491116368e-01 5.9156092527494819e-01  5.2100610575925210e-01 1.7589862251422783e-01 5.9095379192463304e-01  5.2083940584494259e-01 1.7566002451328772e-01 5.9036336437365766e-01  5.2068110181987659e-01 1.7543496950272508e-01 5.8980104196358962e-01  5.2052756185305415e-01 1.7521804111925854e-01 5.8925419549050950e-01  5.2038103466452390e-01 1.7501230626919378e-01 5.8873095856039726e-01  5.2024016270441265e-01 1.7481566635960605e-01 5.8822664655559953e-01  5.2010445545281125e-01 1.7462728445314882e-01 5.8773968224840001e-01  5.1997713260305034e-01 1.7445158389571380e-01 5.8728177349935573e-01  5.1985653171724677e-01 1.7428604007704188e-01 5.8684708242877082e-01  5.1973992523132195e-01 1.7412670739581121e-01 5.8642597071693470e-01  5.1963097198989694e-01 1.7397858507084182e-01 5.8603171736047743e-01  5.1952917393887688e-01 1.7384084149929946e-01 5.8566269521327641e-01  5.1943294691353026e-01 1.7371116542062795e-01 5.8531326598722322e-01  5.1934260057652781e-01 1.7358988204795348e-01 5.8498469869174363e-01  5.1925968729631988e-01 1.7347903048245875e-01 5.8468268696795356e-01  5.2094385369491114e-01 1.7581011118725706e-01 5.9073320520410422e-01  5.3808562468479237e-01 2.0880305740505009e-01 6.4218751529752693e-01  5.2009122711539968e-01 1.7460861871138020e-01 5.8769237149022502e-01  5.3312779438896474e-01 1.9749968611718013e-01 6.2924806750167284e-01  5.1924889961743392e-01 1.7346547990625455e-01 5.8464305800869976e-01  5.4153100152385014e-01 2.1756675651067980e-01 6.5018371185793855e-01  5.2252429082274787e-01 1.7814488259243297e-01 5.9625220668522261e-01  5.2650265161575938e-01 1.8465498081490028e-01 6.0945960279411460e-01  5.4409636203200018e-01 2.2460668370745837e-01 6.5557893965958891e-01  5.3713379078941903e-01 2.0651761441824162e-01 6.3983125120636164e-01  5.2269497853571179e-01 1.7840632894846073e-01 5.9683863958387440e-01  5.4130434235356217e-01 2.1696504585007328e-01 6.4968433062391695e-01  5.3889375993731925e-01 2.1079087095749646e-01 6.4413773455363654e-01  5.2412016407875273e-01 1.8064882082004843e-01 6.0166767290063550e-01  5.3454893986204333e-01 2.0058885131825316e-01 6.3312443362136073e-01  5.1938581367238967e-01 1.7364766727122863e-01 5.8514200991208032e-01  5.4290247720926221e-01 2.2127278915995624e-01 6.5312954818761981e-01  5.4397142494499962e-01 2.2425268082497865e-01 6.5532784670344257e-01  5.1892102162950571e-01 1.7303061557693386e-01 5.8344467935021749e-01  5.2605120230064273e-01 1.8387138981109086e-01 6.0800978493821844e-01  5.3227118465385059e-01 1.9569700966639214e-01 6.2684710370638530e-01  5.2826040814506503e-01 1.8781755654314339e-01 6.1498073181989810e-01  5.1880321878903046e-01 1.7287630657468919e-01 5.8301230246704006e-01  5.4442723693598483e-01 2.2554793448033067e-01 6.5623889163104576e-01  5.3004785900362872e-01 1.9121496787308553e-01 6.2039562675807114e-01  5.2994415453655341e-01 1.9101231959022141e-01 6.2008711914560033e-01  5.1881880570468486e-01 1.7289700682581083e-01 5.8306942923153005e-01  5.2006573474307649e-01 1.7457463069465559e-01 5.8760022832172887e-01  5.3598139304151493e-01 2.0382287470743413e-01 6.3689710549971335e-01  5.4290211642880271e-01 2.2127283998274908e-01 6.5312825221261117e-01  5.2407135102948255e-01 1.8056971732664948e-01 6.0150459743417128e-01  5.2101672822057699e-01 1.7591353427295275e-01 5.9099153448554753e-01  5.4448013485817592e-01 2.2569963399405391e-01 6.5634333165369851e-01  5.2858069720957390e-01 1.8841334316429637e-01 6.1596562122994569e-01  5.3134267485635345e-01 1.9378950768686434e-01 6.2419170578937488e-01  5.1894308532762923e-01 1.7306017340223215e-01 5.8352531240014793e-01  5.4011746485654200e-01 2.1387853361415279e-01 6.4700460524648118e-01  5.3961602988190249e-01 2.1260008846156231e-01 6.4584338541053854e-01  5.1960522640911344e-01 1.7394454489613465e-01 5.8593813713548981e-01  5.2166330587489074e-01 1.7685545587761456e-01 5.9326464108737087e-01  5.3452452233570480e-01 2.0053352479620198e-01 6.3305945573500833e-01  5.4358452127388235e-01 2.2316561527191872e-01 6.5454172267055399e-01  5.2520469108314005e-01 1.8243257615562516e-01 6.0525819257980396e-01  5.1915544242704270e-01 1.7334054604644430e-01 5.8430229196799521e-01  5.2326850559694682e-01 1.7929445874870822e-01 5.9879730462792691e-01  5.4435389498370612e-01 2.2533911172216606e-01 6.5609302688980975e-01  5.4226183865224187e-01 2.1952623534750726e-01 6.5177046786153925e-01  5.2751362749201192e-01 1.8645288689865266e-01 6.1265854318243129e-01  5.3605461811825417e-01 2.0399283880847921e-01 6.3708573018094938e-01  5.2047652537596956e-01 1.7514713754103761e-01 5.8907173703794058e-01  5.2054073619988173e-01 1.7523637010804952e-01 5.8930134267845902e-01  5.2491510843654532e-01 1.8194987195954201e-01 6.0430656399972371e-01  5.4342024425419522e-01 2.2270608522023286e-01 6.5420511213466026e-01  5.2695979772428891e-01 1.8546070813988555e-01 6.1091381867012107e-01  5.3702106362326529e-01 2.0624925823006524e-01 6.3954865681631268e-01  5.2163724995814409e-01 1.7681618120907586e-01 5.9317386440138764e-01  5.2338340346