<?xml version="1.0"?>
<VTKFile type="UnstructuredGrid"  version="0.1"  >
<UnstructuredGrid>
<Piece  NumberOfPoints="4940" NumberOfCells="9650">
<Points>
<DataArray  type="Float64"  NumberOfComponents="3"  format="ascii">500 250 0  0 250 0  250 500 0  250 0 0  256.8885856082646 499.9050767557906 0  263.7719401218049 499.6203791065173 0  270.6448364229772 499.1461232471188 0  277.5020553257866 498.4826693209355 0  284.3383895508592 497.6305211460281 0  291.1486476865662 496.5903258312597 0  297.9276581259182 495.3628732847843 0  304.6702729675493 493.9490956196674 0  311.3713719748657 492.3500664368026 0  318.0258664141369 490.5670000199653 0  324.6287029687753 488.6012504015818 0  331.1748675330201 486.4543103455647 0  337.6593890460416 484.1278102064655 0  344.0773432429536 481.6235166997244 0  350.4238564271474 478.9433315480048 0  356.694109139292 476.0892900492477 0  362.88333985546 473.0635595140469 0  368.9868485575419 469.8684376402048 0  375.0000003153078 466.5063507640667 0  380.9182288257928 462.9798520074548 0  386.7370398729688 459.2916193419558 0  392.4520147244077 455.444453565817 0  398.0588135356345 451.4412761437442 0  403.5531785622926 447.285127045646 0  408.9309374414144 442.9791624087773 0  414.1880064015299 438.5266521049243 0  419.3203932989752 433.9309773069245 0  424.324200661095 429.1956279150535 0  429.1956286596235 424.3241998957182 0  433.9309780058756 419.3203925397119 0  438.5266527445345 414.1880056671062 0  442.9791630130591 408.9309367076756 0  447.2851276060475 403.5531778422888 0  451.4412766621026 398.0588128303826 0  455.4444540361634 392.4520140460735 0  459.2916197786263 386.7370392045948 0  462.9798524073514 380.9182281752347 0  466.5063511234856 374.9999996927758 0  469.8684379657123 368.9868479560565 0  473.0635598144817 362.8833392617846 0  476.0892903190255 356.6941085676214 0  478.9433317963513 350.4238558609745 0  481.6235169154735 344.0773427117675 0  484.12781039012 337.6593885555221 0  486.4543105028062 331.1748670749914 0  488.601250531677 324.6287025528375 0  490.5670001317469 318.0258660188321 0  492.3500665291326 311.3713716102628 0  493.949095695951 304.6702726271575 0  495.3628733416623 297.9276578347343 0  496.5903258712341 291.1486474470129 0  497.6305211749058 284.3383893426084 0  498.4826693388848 277.502055163614 0  499.1461232580606 270.6448362909296 0  499.6203791109319 263.7719400417897 0  499.9050767571306 256.8885855596534 0  499.9050767559877 243.1114143988867 0  499.6203791069493 236.2280598860241 0  499.1461232485393 229.3551635941651 0  498.4826693235677 222.4979446979962 0  497.6305211491849 215.6616104719064 0  496.5903258357701 208.8513523404629 0  495.3628732906988 202.0723419043604 0  493.9490956264813 195.3297270628552 0  492.3500664487791 188.6286280724281 0  490.5670000344809 181.9741336371959 0  488.6012504175981 175.3712970824318 0  486.4543103623226 168.8251325157939 0  484.1278102222298 162.3406109960628 0  481.6235167152198 155.9226567951971 0  478.9433315621651 149.5761436051346 0  476.0892900516498 143.3058908657982 0  473.063559513628 137.1166601437124 0  469.8684376406648 131.0131514433083 0  466.5063507675389 124.9999996907064 0  462.9798520124137 119.0817711822745 0  459.2916193464549 113.2629601339176 0  455.4444535642773 107.5479852733717 0  451.4412761528674 101.9411864767781 0  447.2851270583545 96.44682145403524 0  442.9791624165781 91.06906256805769 0  438.5266521117469 85.81199360630404 0  433.9309773156125 80.67960671046254 0  429.1956279150353 75.67579933888632 0  424.3241998888952 70.80437133373906 0  419.3203925223282 66.06902197812161 0  414.1880056411937 61.47334723289828 0  408.9309366751728 57.0208369601728 0  403.5531778009394 52.71487236176898 0  398.058812796452 48.55872331295853 0  392.4520140187753 44.55554594490843 0  386.7370391799677 40.70838020528396 0  380.9182281475119 37.02014757560744 0  374.9999996718656 33.49364886444181 0  368.9868479340393 30.13156202237255 0  362.8833392380029 26.93644017348339 0  356.6941085456942 23.91070967062674 0  350.4238558420009 21.0566681953261 0  344.0773426899492 18.37648307566465 0  337.6593885328982 15.87218960140942 0  331.1748670549786 13.54568949032341 0  324.6287025315056 11.39874946165088 0  318.0258660010876 9.432999863235466 0  311.3713716017894 7.649933468721599 0  304.6702726190621 6.050904302234756 0  297.9276578269805 4.637126656823085 0  291.148647441857 3.409674127905504 0  284.3383893425031 2.369478825079682 0  277.502055159398 1.517330660648639 0  270.6448362875833 0.853876741662134 0  263.7719400401456 0.3796208889774277 0  256.8885855592052 0.09492324285704967 0  243.1114143979462 0.09492324403817065 0  236.2280598850882 0.3796208931023841 0  229.3551635938215 0.8538767514891958 0  222.4979446968584 1.517330676558146 0  215.6616104703111 2.369478851036291 0  208.8513523382973 3.409674164591252 0  202.0723419066374 4.637126708856528 0  195.3297270659513 6.050904372824903 0  188.628628074828 7.649933550613184 0  181.9741336377093 9.432999965373938 0  175.3712970793675 11.39874958336037 0  168.8251325057572 13.54568964112298 0  162.340610986655 15.87218978129263 0  155.9226567874317 18.37648328793418 0  149.576143602509 21.05666843898663 0  143.3058908718157 23.91070994551046 0  137.1166601505524 26.93644048291054 0  131.0131514451933 30.13156235831508 0  124.9999996848412 33.49364923584736 0  119.0817711715717 37.0201479941652 0  113.2629601211624 40.70838066187849 0  107.5479852622251 44.55554644345162 0  101.9411864693332 48.55872385260452 0  96.44682143286516 52.71487295812284 0  91.06906254351222 57.02083760363669 0  85.81199358272519 61.4733479087879 0  80.67960667988106 66.06902271253972 0  75.67579930062769 70.80437212218331 0  70.80437129287643 75.67580015310926 0  66.06902193673014 80.67960752263491 0  61.47334718684866 85.81199441168215 0  57.02083692524275 91.0690633672404 0  52.71487232786438 96.44682224262129 0  48.55872328070024 101.941187247437 0  44.55554591578033 107.5479860232332 0  40.7083801742321 113.2629608675606 0  37.02014754791168 119.0817718975441 0  33.49364883372994 125.000000381329 0  30.13156199866361 131.0131521097709 0  26.9364401549829 137.1166607985551 0  23.91070965524918 143.3058914868915 0  21.05666818346614 149.576144185037 0  18.37648306853811 155.9226573275967 0  15.8721895918909 162.3406114925245 0  13.54568948170046 168.8251329701392 0  11.39874945301878 175.3712974960928 0  9.432999857087736 181.9741340206533 0  7.649933466342702 188.6286284076045 0  6.050904301250966 195.3297273853278 0  4.637126656808988 202.0723421730917 0  3.409674127767772 208.8513525589684 0  2.369478824521138 215.6616106615248 0  1.517330660909465 222.4979448382452 0  0.8538767414496533 229.355163714981 0  0.3796208887135322 236.2280599646376 0  0.09492324266324204 243.1114144478261 0  0.0949232442452228 256.8885856095658 0  0.3796208935834784 263.7719401236316 0  0.8538767530323526 270.6448364248016 0  1.517330679476544 277.5020553295092 0  2.369478854618649 284.3383895555228 0  3.409674170191892 291.1486476952655 0  4.6371267162381 297.9276581311522 0  6.050904381420935 304.6702729724059 0  7.649933562385399 311.3713719716595 0  9.43299997979841 318.0258664133013 0  11.3987495994252 324.6287029719946 0  13.54568965885832 331.174867545904 0  15.87218979367188 337.6593890464085 0  18.37648329843151 344.0773432384132 0  21.05666844777872 350.423856417535 0  23.91070995156048 356.6941091410045 0  26.93644048988043 362.8833398632205 0  30.13156235982007 368.9868485575877 0  33.49364924138357 375.0000003247478 0  37.0201480006036 380.9182288389023 0  40.70838066758398 386.7370398875706 0  44.55554644477201 392.4520147396792 0  48.55872386086904 398.0588135419111 0  52.71487295981296 403.5531785693063 0  57.02083760525949 408.9309374584583 0  61.47334790862246 414.1880064170849 0  66.06902271205095 419.320393319588 0  70.80437211216579 424.3242006890749 0  75.67580013809859 429.195628692521 0  80.6796075127923 433.930978054209 0  85.81199439754931 438.5266528008431 0  91.06906334717917 442.9791630582355 0  96.44682221438322 447.2851276501571 0  101.9411872243843 451.441276702356 0  107.5479859945825 455.4444540643537 0  113.2629608446994 459.2916198108319 0  119.0817718768376 462.9798524393601 0  125.0000003647644 466.5063511567065 0  131.0131521012763 469.8684379967393 0  137.1166607840049 473.0635598376539 0  143.3058914748804 476.0892903390826 0  149.5761441732679 478.9433318113714 0  155.9226573130112 481.6235169255377 0  162.3406114779862 484.1278104026658 0  168.8251329570439 486.4543105138039 0  175.3712974805475 488.601250542119 0  181.9741340135204 490.5670001408953 0  188.6286284005059 492.3500665318597 0  195.3297273788229 493.9490956972913 0  202.0723421640089 495.3628733414168 0  208.8513525529672 496.5903258712308 0  215.6616106544547 497.6305211744985 0  222.4979448327038 498.4826693384772 0  229.3551637102845 499.1461232581612 0  236.2280599621369 499.6203791111485 0  243.1114144470173 499.9050767573145 0  155.2373389820306 474.8197567317462 0  25.36256300907667 153.9152755065208 0  432.3709625126712 412.6214396304305 0  6.013151705810699 246.637913163471 0  246.6379131630491 493.986848294322 0  338.6995838441862 22.68244767887072 0  477.3175523131281 338.6995838660569 0  493.9868482700757 246.6379131399102 0  246.6201155078769 6.218451882810491 0  417.6179310263282 72.7156044707053 0  102.2232990934413 445.0100869616822 0  63.66330858966404 92.20354579482142 0  391.3105220491464 50.73522820883105 0  72.79295043967942 418.0702734974704 0  448.290574428537 108.25674339002 0  402.4604651193511 440.7462829841712 0  97.55317348421397 59.11376320116034 0  136.7376477664901 33.58246472647134 0  363.3288394375288 465.6947312928271 0  44.0678766556007 381.0860953771871 0  469.6905266180034 142.3890690100806 0  22.68244791668644 338.6995843487432 0  338.699584349159 477.317552078365 0  173.389488083762 18.6681884918202 0  483.4809734778481 179.7121987795732 0  13.50237455842738 306.4709525540879 0  305.9825168523021 487.24416992
[...]
<PointData  Vectors="f_12"> 
<DataArray  type="Float64"  Name="f_12"  NumberOfComponents="3" format="ascii">4.8833204061788166e-01 2.9112126325377602e-01 3.6900202782110464e-01  4.8629002934972437e-01 2.6622463059601315e-01 3.7265594508061678e-01  4.9153083725867686e-01 3.2151189172299849e-01 3.6775273133704350e-01  4.8459757635240314e-01 2.3035270390076229e-01 3.8410871970025240e-01  4.9156845533742466e-01 3.2183391957811269e-01 3.6775532768502428e-01  4.9160178594171805e-01 3.2211861762534028e-01 3.6775793730988893e-01  4.9163282357353749e-01 3.2238338302940533e-01 3.6776050608386462e-01  4.9165992170217510e-01 3.2261415886364742e-01 3.6776293794414400e-01  4.9168376492361743e-01 3.2281695570169466e-01 3.6776519477127539e-01  4.9170420680515181e-01 3.2299064281494100e-01 3.6776720748288610e-01  4.9172123515185989e-01 3.2313520518082384e-01 3.6776893673376243e-01  4.9173498771084517e-01 3.2325190034765688e-01 3.6777035069270869e-01  4.9174526428116361e-01 3.2333907979618193e-01 3.6777140759933791e-01  4.9175187752896599e-01 3.2339519150868656e-01 3.6777207464881440e-01  4.9175359839685828e-01 3.2340974372465353e-01 3.6777227994202072e-01  4.9175449223639994e-01 3.2341755028871716e-01 3.6777221171738322e-01  4.9174811623813325e-01 3.2336347924789965e-01 3.6777154598174011e-01  4.9174032379305538e-01 3.2329758701301942e-01 3.6777059224424874e-01  4.9172837515145451e-01 3.2319638822132135e-01 3.6776923427395369e-01  4.9171295909035506e-01 3.2306573400983352e-01 3.6776752336268098e-01  4.9169426033899732e-01 3.2290713941118182e-01 3.6776549630341365e-01  4.9167060433496790e-01 3.2270610759838581e-01 3.6776315584527247e-01  4.9164314943524745e-01 3.2247247524181016e-01 3.6776059507625064e-01  4.9161337219368639e-01 3.2221882818242820e-01 3.6775790063958230e-01  4.9157971581142562e-01 3.2193162322965208e-01 3.6775510864791300e-01  4.9154151319789008e-01 3.2160489215686716e-01 3.6775230359179795e-01  4.9149870695597114e-01 3.2123792234465581e-01 3.6774958958717863e-01  4.9145378732571821e-01 3.2085206544016026e-01 3.6774707163374482e-01  4.9140527453062599e-01 3.2043428063638402e-01 3.6774485337506535e-01  4.9135173773961333e-01 3.1997182202872904e-01 3.6774310241725472e-01  4.9129574087465538e-01 3.1948674664563886e-01 3.6774190103081805e-01  4.9123578498734433e-01 3.1896566307796748e-01 3.6774142898866902e-01  4.9117230563672615e-01 3.1841206646912096e-01 3.6774183919405212e-01  4.9110607546250840e-01 3.1783244548088363e-01 3.6774321621184747e-01  4.9103515388943514e-01 3.1720922772107929e-01 3.6774592346543167e-01  4.9096135091186593e-01 3.1655803151729628e-01 3.6775001933199297e-01  4.9088532849957073e-01 3.1588446285094063e-01 3.6775554516610237e-01  4.9080511660436404e-01 3.1517042292476355e-01 3.6776300556401603e-01  4.9072086628486922e-01 3.1441666541350344e-01 3.6777268586923312e-01  4.9063455041488524e-01 3.1364058658997396e-01 3.6778444007097372e-01  4.9054621274996796e-01 3.1284220312146083e-01 3.6779844768957132e-01  4.9045421278895074e-01 3.1200602011345735e-01 3.6781533756618290e-01  4.9035889961859080e-01 3.1113464988774769e-01 3.6783531531540659e-01  4.9026156198863996e-01 3.1023931314021547e-01 3.6785838863499176e-01  4.9016140578328687e-01 3.0931216462088201e-01 3.6788501386510308e-01  4.9005894722325893e-01 3.0835743836086033e-01 3.6791533426124934e-01  4.8995442694449143e-01 3.0737680933157513e-01 3.6794955377132255e-01  4.8984811896995833e-01 3.0637224589365958e-01 3.6798792309959449e-01  4.8973872042242705e-01 3.0533059819407732e-01 3.6803132053821930e-01  4.8962811593737832e-01 3.0426945086663543e-01 3.6807919020785174e-01  4.8951575636943057e-01 3.0318262193302570e-01 3.6813225213825013e-01  4.8940200633367431e-01 3.0207333072427428e-01 3.6819047462241433e-01  4.8928686027654705e-01 3.0094061988355064e-01 3.6825437211587664e-01  4.8917005559649357e-01 2.9978126962265328e-01 3.6832440552020895e-01  4.8905237429093651e-01 2.9860237783273597e-01 3.6840045967571611e-01  4.8893405780197835e-01 2.9740565452966478e-01 3.6848277775613281e-01  4.8881462182937507e-01 2.9618571070457261e-01 3.6857192624987217e-01  4.8869470161262613e-01 2.9494814115717732e-01 3.6866797162945431e-01  4.8857459865744862e-01 2.9369587573918748e-01 3.6877067429737725e-01  4.8845484368834813e-01 2.9243455382144928e-01 3.6887969815154764e-01  4.8821201285493188e-01 2.8982833953036391e-01 3.6912596443760126e-01  4.8809179688583365e-01 2.8851552050160922e-01 3.6925967798740206e-01  4.8797204717421611e-01 2.8719129351791811e-01 3.6940151598736748e-01  4.8785231487444369e-01 2.8585062299090341e-01 3.6955197568048298e-01  4.8773361511300856e-01 2.8450311366406511e-01 3.6971096687078892e-01  4.8761572381656509e-01 2.8314726628345166e-01 3.6987800484153416e-01  4.8749883054806620e-01 2.8178302632118635e-01 3.7005426056745849e-01  4.8738307424298055e-01 2.8041259581554112e-01 3.7023910159581802e-01  4.8726874004053500e-01 2.7903848793082958e-01 3.7043263104998941e-01  4.8715594012646773e-01 2.7766159149586517e-01 3.7063493444540319e-01  4.8704446341280061e-01 2.7627912261483600e-01 3.7084648093836603e-01  4.8693520176054722e-01 2.7490131557161301e-01 3.7106614279699512e-01  4.8682738401760528e-01 2.7351886854119195e-01 3.7129520104561914e-01  4.8672168966052964e-01 2.7213951525380342e-01 3.7153280359142854e-01  4.8661810453830906e-01 2.7076316191238553e-01 3.7177895602294431e-01  4.8651681214066789e-01 2.6939183888533963e-01 3.7203349961689475e-01  4.8641784692937645e-01 2.6802622151043753e-01 3.7229623642455051e-01  4.8632126522080421e-01 2.6666678151276407e-01 3.7256723482928017e-01  4.8622713955399660e-01 2.6531466589924452e-01 3.7284624494886159e-01  4.8613566950289711e-01 2.6397290918613142e-01 3.7313261546634158e-01  4.8604680546924389e-01 2.6264114871739785e-01 3.7342631712124597e-01  4.8596082755312298e-01 2.6132280827421361e-01 3.7372691499613503e-01  4.8587739509664146e-01 2.6001404965005803e-01 3.7403484485272404e-01  4.8579704371479926e-01 2.5872354323732744e-01 3.7434800102884652e-01  4.8571947634932672e-01 2.5744694967031911e-01 3.7466733872727265e-01  4.8564480533223497e-01 2.5618672284372829e-01 3.7499208693955705e-01  4.8557304922534134e-01 2.5494395376256968e-01 3.7532175208490370e-01  4.8550425499767230e-01 2.5372015057512037e-01 3.7565577281412044e-01  4.8543844789048213e-01 2.5251729676279899e-01 3.7599316063850324e-01  4.8537554797094873e-01 2.5133442306193626e-01 3.7633411614259549e-01  4.8531560827376180e-01 2.5017414654126591e-01 3.7667743852638153e-01  4.8525858665291266e-01 2.4903701955016347e-01 3.7702263399193936e-01  4.8520438942457078e-01 2.4792215276564616e-01 3.7736975913138299e-01  4.8515305733074254e-01 2.4683278345232901e-01 3.7771720100815842e-01  4.8510475624846561e-01 2.4577421516850245e-01 3.7806286035690229e-01  4.8505902719451444e-01 2.4473793485616055e-01 3.7840918957604847e-01  4.8501589756551711e-01 2.4372701434165242e-01 3.7875461695487173e-01  4.8497569855202177e-01 2.4275147785881437e-01 3.7909521662543844e-01  4.8493788310862118e-01 2.4180034603657594e-01 3.7943436155839655e-01  4.8490231710316201e-01 2.4087297189150259e-01 3.7977175600107271e-01  4.8486954674089833e-01 2.3998635387362000e-01 3.8010062218165291e-01  4.8483907328335202e-01 2.3912915761421838e-01 3.8042484519605319e-01  4.8481082545623522e-01 2.3830450487531105e-01 3.8074222763310744e-01  4.8478464827391626e-01 2.3750958955940052e-01 3.8105361455942771e-01  4.8476056204472900e-01 2.3674882925243482e-01 3.8135660237122432e-01  4.8473842769143660e-01 2.3602110424823458e-01 3.8165112156843850e-01  4.8471817462678390e-01 2.3532804510873043e-01 3.8193588514741078e-01  4.8469972205216910e-01 2.3467077723218671e-01 3.8220984578925798e-01  4.8468289186064212e-01 2.3404631361772879e-01 3.8247377615685568e-01  4.8466758718612790e-01 2.3345514317383026e-01 3.8272688874842181e-01  4.8465376839465135e-01 2.3290001395430807e-01 3.8296743621590879e-01  4.8464141965410501e-01 2.3238370951708837e-01 3.8319377399742116e-01  4.8463041401626455e-01 2.3190562919401439e-01 3.8340558052417956e-01  4.8462055156167888e-01 2.3146061178882274e-01 3.8360473296932335e-01  4.8461186589618710e-01 2.3105445489023632e-01 3.8378812627390652e-01  4.8460420358456097e-01 2.3068365621934836e-01 3.8395694877001019e-01  4.8459209122493757e-01 2.3006965740887392e-01 3.8423947932879299e-01  4.8458658489922862e-01 2.2977933673888501e-01 3.8437424451587410e-01  4.8458284885036595e-01 2.2957626210290102e-01 3.8446906967273131e-01  4.8457954267816339e-01 2.2939292119538410e-01 3.8455505193497314e-01  4.8457690519626390e-01 2.2924430108108140e-01 3.8462497218477376e-01  4.8457502829408589e-01 2.2913707408943110e-01 3.8467554971580575e-01  4.8457383529137266e-01 2.2906871700219161e-01 3.8470780218814682e-01  4.8457325028517517e-01 2.2903512357816044e-01 3.8472365747768400e-01  4.8457332722115132e-01 2.2904016046462400e-01 3.8472121132207776e-01  4.8457377337625945e-01 2.2906562877858153e-01 3.8470921390172591e-01  4.8457528826672847e-01 2.2915429229641521e-01 3.8466716805260825e-01  4.8457734287645698e-01 2.2927219367196683e-01 3.8461148721322169e-01  4.8458007556750776e-01 2.2942648102289012e-01 3.8453885851370584e-01  4.8458338710138182e-01 2.2960986938346273e-01 3.8445286941020873e-01  4.8458751326034727e-01 2.2983347948216665e-01 3.8434847795391919e-01  4.8459255987405980e-01 2.3010049208098635e-01 3.8422443878590035e-01  4.8459837566890140e-01 2.3039930681597037e-01 3.8408651096968321e-01  4.8460506293895400e-01 2.3073275828355785e-01 3.8393362251392588e-01  4.8461268182212464e-01 2.3110047716256629e-01 3.8376629670190782e-01  4.8462132076584008e-01 2.3150341826898685e-01 3.8358445542461961e-01  4.8463113045480849e-01 2.3194463121105344e-01 3.8338716281898511e-01  4.8464212937753504e-01 2.3242167313536582e-01 3.8317588626114069e-01  4.8465430692364597e-01 2.3293004649137153e-01 3.8295310644761910e-01  4.8466777233500513e-01 2.3347077116785261e-01 3.8271881749747788e-01  4.8468264959129870e-01 2.3404541598147691e-01 3.8247277293445275e-01  4.8469901656082526e-01 2.3465319922610572e-01 3.8221581718781278e-01  4.8471696461472458e-01 2.3529401408915729e-01 3.8194847858572301e-01  4.8473656378951346e-01 2.3596671808824257e-01 3.8167176351019955e-01  4.8475791678798014e-01 2.3667148684083211e-01 3.8138609859417133e-01  4.8478108809397186e-01 2.3740712502581948e-01 3.8109248725923084e-01  4.8480616297367307e-01 2.3817319395467215e-01 3.8079161068158746e-01  4.8483315811779215e-01 2.3896716488172248e-01 3.8048497831955025e-01  4.8486215737497551e-01 2.3978900730070690e-01 3.8017302189297808e-01  4.8489333258369477e-01 2.4064044966865247e-01 3.7985566893006378e-01  4.8492677398005185e-01 2.4152182789376697e-01 3.7953316282018296e-01  4.8496248788493790e-01 2.4243030469938054e-01 3.7920713716748877e-01  4.8500049517551369e-01 2.4336431788092988e-01 3.7887856249240964e-01  4.8504083077492993e-01 2.4432267518018339e-01 3.7854828002692159e-01  4.8508355780735474e-01 2.4530499320857230e-01 3.7821680986188211e-01  4.8512867236171842e-01 2.4630925325661132e-01 3.7788526956236729e-01  4.8517665415211753e-01 2.4734417026943020e-01 3.7755119409854004e-01  4.8522699792585644e-01 2.4839775377155485e-01 3.7721871153589903e-01  4.8527971608919190e-01 2.4946809372805848e-01 3.7688896240537101e-01  4.8533520460886320e-01 2.5056300007254417e-01 3.7655953284178195e-01  4.8539336616620138e-01 2.5167851640651134e-01 3.7623216221248856e-01  4.8545419889240143e-01 2.5281364686974972e-01 3.7590735819319887e-01  4.8551725705229198e-01 2.5395951502028791e-01 3.7558780975744743e-01  4.8558337643526617e-01 2.5512993966410935e-01 3.7527000285363393e-01  4.8565197283660433e-01 2.5631364955896974e-01 3.7495728654817145e-01  4.8572300576381783e-01 2.5751080891072547e-01 3.7464924566484964e-01  4.8579657987932573e-01 2.5872021005848383e-01 3.7434721610707017e-01  4.8587288136385681e-01 2.5994678497422757e-01 3.7404920959338850e-01  4.8595164845007705e-01 2.6118445983262306e-01 3.7375736647622954e-01  4.8603276131155260e-01 2.6243145160937859e-01 3.7347200251650564e-01  4.8611623564047679e-01 2.6368774370922671e-01 3.7319320132582412e-01  4.8620192858447497e-01 2.6495136894359622e-01 3.7292129122953005e-01  4.8638039362457264e-01 2.6750550996871819e-01 3.7239751782967945e-01  4.8647265450346405e-01 2.6878897154884007e-01 3.7214692390594922e-01  4.8656702603509894e-01 2.7007774687407526e-01 3.7190374238312129e-01  4.8666330031792610e-01 2.7136954606323960e-01 3.7166812471394511e-01  4.8676140597293555e-01 2.7266334824696725e-01 3.7144029040412990e-01  4.8686129464500844e-01 2.7395880375721043e-01 3.7122015132200226e-01  4.8696279929648978e-01 2.7525392923283099e-01 3.7100796296178862e-01  4.8706584961412713e-01 2.7654823259217570e-01 3.7080360975805976e-01  4.8717032863832638e-01 2.7784048843625964e-01 3.7060718154480127e-01  4.8727610033633828e-01 2.7912944371690790e-01 3.7041865702447557e-01  4.8738301367544157e-01 2.8041344111306815e-01 3.7023822168580228e-01  4.8749092253445742e-01 2.8169159495154661e-01 3.7006556804495622e-01  4.8759980544291637e-01 2.8296376625804459e-01 3.6990069016608357e-01  4.8770968968212058e-01 2.8423080648232024e-01 3.6974322846390323e-01  4.8781983271375989e-01 2.8548477813817635e-01 3.6959387637950891e-01  4.8793108939035323e-01 2.8673561312350676e-01 3.6945136555530950e-01  4.8804286614677855e-01 2.8797722547282889e-01 3.6931612149540149e-01  4.8815431595476688e-01 2.8920091231242051e-01 3.6918872570057504e-01  4.8826615341906671e-01 2.9041468796969006e-01 3.6906836262510379e-01  4.8837803176947736e-01 2.9161599939045424e-01 3.6895460531480256e-01  4.8848993578101851e-01 2.9280456723713821e-01 3.6884762587449355e-01  4.8860151712243571e-01 2.9397753045307118e-01 3.6874725038075934e-01  4.8871289621090702e-01 2.9513673545264013e-01 3.6865304458416676e-01  4.8882391868640090e-01 2.9628095156902345e-01 3.6856495330377864e-01  4.8893405699514736e-01 2.9740539281966416e-01 3.6848302668372268e-01  4.8904345655003595e-01 2.9851210426958807e-01 3.6840685284631219e-01  4.8915245752839359e-01 2.9960514258333709e-01 3.6833587391072703e-01  4.8925980119041679e-01 3.0067229142927410e-01 3.6827067408702890e-01  4.8936653865574037e-01 3.0172461190849775e-01 3.6821030802741406e-01  4.8947203735762412e-01 3.0275646767141307e-01 3.6815478593765955e-01  4.8957612072410667e-01 3.0376656898610921e-01 3.6810399880742123e-01  4.8967878200633647e-01 3.0475540416008656e-01 3.6805764105945205e-01  4.8977988502856512e-01 3.0572219027725306e-01 3.6801550472290256e-01  4.8987952270092927e-01 3.0666830439394677e-01 3.6797729032480858e-01  4.8997786935816473e-01 3.0759585906607095e-01 3.6794269424429649e-01  4.9007365812042120e-01 3.0849335428997449e-01 3.6791194588027387e-01  4.9016725611937251e-01 3.0936480613902767e-01 3.6788462542959727e-01  4.9026006663853355e-01 3.1022377731876677e-01 3.6786004757246155e-01  4.9035018344659459e-01 3.1105290318302953e-01 3.6783860185552109e-01  4.9043764986009469e-01 3.1185305060593826e-01 3.6782004614473707e-01  4.9052326771627636e-01 3.1263211309514616e-01 3.6780391059391404e-01  4.9060643182847069e-01 3.1338495201672067e-01 3.6779012320496351e-01  4.9068758017756081e-01 3.1411587062888879e-01 3.6777845854120106e-01  4.9076548702466238e-01 3.1481425621458498e-01 3.6776886664231367e-01  4.9084139763967771e-01 3.1549164163548432e-01 3.6776102532030497e-01  4.9091443893020520e-01 3.1614058191387173e-01 3.6775484320851032e-01  4.9098506257903701e-01 3.1676547194130894e-01 3.6775008597703857e-01  4.9105341333649294e-01 3.1736790617914679e-01 3.6774659557398609e-01  4.9111814596597880e-01 3.1793616802129754e-01 3.6774441605001701e-01  4.9117983640984469e-01 3.1847580256938801e-01 3.6774324019438026e-01  4.9123954593415753e-01 3.1899643726976812e-01 3.6774288273904587e-01  4.9129575310078888e-01 3.1948491703600607e-01 3.6774332000273063e-01  4.9134860623551624e-01 3.1994282616939851e-01 3.6774441933305596e-01  4.9139868416075611e-01 3.2037552356999127e-01 3.6774599337801167e-01  4.9144585282254794e-01 3.2078203707911662e-01 3.6774797526080394e-01  4.9148940830250437e-01 3.2115646197892112e-01 3.6775025070297518e-01  4.9063960706046356e-01 3.1368324594753699e-01 3.6778581717475956e-01  4.8524610008564761e-01 2.4878968961192988e-01 3.7709689074152786e-01  4.9105638830791193e-01 3.1739528328029326e-01 3.6774557900311233e-01  4.8624623389560051e-01 2.6559457135572317e-01 3.7278628044119227e-01  4.9149854909244678e-01 3.2123395556225054e-01 3.6775148232201504e-01  4.8479957611409785e-01 2.3796848764850029e-01 3.8087280881164176e-01  4.8989306249897691e-01 3.0679686288627556e-01 3.6797193593978089e-01  4.8826859657436422e-01 2.9044082499907553e-01 3.6906602875564765e-01  4.8459607392346726e-01 2.3028178217216194e-01 3.8414068648283906e-01  4.8540753895903188e-01 2.5194050571936416e-01 3.7615816577092898e-01  4.8982061963588691e-01 3.0610903144680462e-01 3.6799999771309838e-01  4.8482147561570910e-01 2.3862876122020441e-01 3.8061467024576973e-01  4.8512501471114206e-01 2.4622309695025818e-01 3.7791508441443722e-01  4.8920461939801752e-01 3.0012405232686423e-01 3.6830415714141979e-01  4.8591828181840035e-01 2.6065922371170647e-01 3.7388183146701093e-01  4.9142074104713868e-01 3.2056663627589765e-01 3.6774619514319984e-01  4.8467598468618073e-01 2.3379348333602287e-01 3.8257980407548497e-01  4.8460298002799246e-01 2.3063415392636152e-01 3.8397817155747366e-01  4.9166877259808278e-01 3.2268946098560941e-01 3.6776376204153272e-01  4.8843777054903925e-01 2.9225122843669299e-01 3.6889722680497689e-01  4.8646437348899785e-01 2.6867122167035967e-01 3.7217110172956414e-01  4.8765221672038683e-01 2.8356998347969387e-01 3.6982467385111173e-01  4.9173286646426695e-01 3.2323334183779928e-01 3.6777052837179525e-01  4.8457782837796864e-01 2.2930567670716412e-01 3.8459503813809587e-01  4.8708655865292505e-01 2.7680333853663774e-01 3.7076548185358560e-01  4.8711672545333173e-01 2.7717926193166337e-01 3.7070707687264026e-01  4.9172616157383897e-01 3.2317598141086135e-01 3.6777017954267321e-01  4.9107661540512620e-01 3.1757080049235842e-01 3.6774644287278763e-01  4.8561884563341312e-01 2.5574548307301020e-01 3.7510634408429577e-01  4.8467690445573508e-01 2.3382080053057314e-01 3.8256944430153134e-01  4.8922210999315779e-01 3.0029844818792450e-01 3.6829308923520893e-01  4.9059753547325308e-01 3.1330569714881784e-01 3.6779067176687541e-01  4.8457534771156419e-01 2.2916068053617844e-01 3.8466380600368810e-01  4.8754680792985677e-01 2.8234469153458552e-01 3.6998106553903909e-01  4.8671167202322413e-01 2.7200981420654258e-01 3.7155454828063539e-01  4.9166010200926979e-01 3.2261467794409276e-01 3.6776367956836353e-01  4.8495949321157744e-01 2.4234832722554056e-01 3.7923799952350074e-01  4.8502234470514349e-01 2.4388818073627583e-01 3.7869694145150118e-01  4.9131252739075892e-01 3.1962938933737411e-01 3.6774431692602838e-01  4.9029500185188307e-01 3.1054495211425887e-01 3.6785206394862252e-01  4.8592136444157175e-01 2.6071193314592500e-01 3.7386772626876885e-01  4.8462775884095521e-01 2.3179127605330888e-01 3.8345600669352359e-01  4.8876274213087018e-01 2.9565093972100492e-01 3.6861328937182747e-01  4.9154413013231629e-01 3.2162585248985620e-01 3.6775352118332744e-01  4.8956429834158283e-01 3.0365225767633625e-01 3.6810947656379406e-01  4.8458196147306026e-01 2.2953161558896171e-01 3.8448947379579557e-01  4.8473024488601796e-01 2.3574684262742757e-01 3.8176283864474525e-01  4.8790727000029671e-01 2.8646771943032817e-01 3.6948211891696586e-01  4.8560682946059774e-01 2.5553306562901396e-01 3.7516426527341734e-01  4.9087018616277867e-01 3.1574665871408331e-01 3.6775918804022584e-01  4.9083180065594656e-01 3.1540726193500696e-01 3.6776113229778612e-01  4.8887992744532749e-01 2.9685327994521366e-01 3.6852317807748070e-01  4.8463814021517121e-01 2.3225410730891993e-01 3.8324933215479662e-01  4.8810299150904196e-01 2.8863865568436881e-01 3.6924683052069374e-01  4.8542522408983718e-01 2.5227660283400488e-01 3.7606000593496303e-01  4.9030146867573920e-01 3.1060611247483089e-01 3.6784926079293262e-01  4.8951784021