<?xml version="1.0"?>
<VTKFile type="UnstructuredGrid"  version="0.1"  >
<UnstructuredGrid>
<Piece  NumberOfPoints="4940" NumberOfCells="9650">
<Points>
<DataArray  type="Float64"  NumberOfComponents="3"  format="ascii">500 250 0  0 250 0  250 500 0  250 0 0  256.8885856082646 499.9050767557906 0  263.7719401218049 499.6203791065173 0  270.6448364229772 499.1461232471188 0  277.5020553257866 498.4826693209355 0  284.3383895508592 497.6305211460281 0  291.1486476865662 496.5903258312597 0  297.9276581259182 495.3628732847843 0  304.6702729675493 493.9490956196674 0  311.3713719748657 492.3500664368026 0  318.0258664141369 490.5670000199653 0  324.6287029687753 488.6012504015818 0  331.1748675330201 486.4543103455647 0  337.6593890460416 484.1278102064655 0  344.0773432429536 481.6235166997244 0  350.4238564271474 478.9433315480048 0  356.694109139292 476.0892900492477 0  362.88333985546 473.0635595140469 0  368.9868485575419 469.8684376402048 0  375.0000003153078 466.5063507640667 0  380.9182288257928 462.9798520074548 0  386.7370398729688 459.2916193419558 0  392.4520147244077 455.444453565817 0  398.0588135356345 451.4412761437442 0  403.5531785622926 447.285127045646 0  408.9309374414144 442.9791624087773 0  414.1880064015299 438.5266521049243 0  419.3203932989752 433.9309773069245 0  424.324200661095 429.1956279150535 0  429.1956286596235 424.3241998957182 0  433.9309780058756 419.3203925397119 0  438.5266527445345 414.1880056671062 0  442.9791630130591 408.9309367076756 0  447.2851276060475 403.5531778422888 0  451.4412766621026 398.0588128303826 0  455.4444540361634 392.4520140460735 0  459.2916197786263 386.7370392045948 0  462.9798524073514 380.9182281752347 0  466.5063511234856 374.9999996927758 0  469.8684379657123 368.9868479560565 0  473.0635598144817 362.8833392617846 0  476.0892903190255 356.6941085676214 0  478.9433317963513 350.4238558609745 0  481.6235169154735 344.0773427117675 0  484.12781039012 337.6593885555221 0  486.4543105028062 331.1748670749914 0  488.601250531677 324.6287025528375 0  490.5670001317469 318.0258660188321 0  492.3500665291326 311.3713716102628 0  493.949095695951 304.6702726271575 0  495.3628733416623 297.9276578347343 0  496.5903258712341 291.1486474470129 0  497.6305211749058 284.3383893426084 0  498.4826693388848 277.502055163614 0  499.1461232580606 270.6448362909296 0  499.6203791109319 263.7719400417897 0  499.9050767571306 256.8885855596534 0  499.9050767559877 243.1114143988867 0  499.6203791069493 236.2280598860241 0  499.1461232485393 229.3551635941651 0  498.4826693235677 222.4979446979962 0  497.6305211491849 215.6616104719064 0  496.5903258357701 208.8513523404629 0  495.3628732906988 202.0723419043604 0  493.9490956264813 195.3297270628552 0  492.3500664487791 188.6286280724281 0  490.5670000344809 181.9741336371959 0  488.6012504175981 175.3712970824318 0  486.4543103623226 168.8251325157939 0  484.1278102222298 162.3406109960628 0  481.6235167152198 155.9226567951971 0  478.9433315621651 149.5761436051346 0  476.0892900516498 143.3058908657982 0  473.063559513628 137.1166601437124 0  469.8684376406648 131.0131514433083 0  466.5063507675389 124.9999996907064 0  462.9798520124137 119.0817711822745 0  459.2916193464549 113.2629601339176 0  455.4444535642773 107.5479852733717 0  451.4412761528674 101.9411864767781 0  447.2851270583545 96.44682145403524 0  442.9791624165781 91.06906256805769 0  438.5266521117469 85.81199360630404 0  433.9309773156125 80.67960671046254 0  429.1956279150353 75.67579933888632 0  424.3241998888952 70.80437133373906 0  419.3203925223282 66.06902197812161 0  414.1880056411937 61.47334723289828 0  408.9309366751728 57.0208369601728 0  403.5531778009394 52.71487236176898 0  398.058812796452 48.55872331295853 0  392.4520140187753 44.55554594490843 0  386.7370391799677 40.70838020528396 0  380.9182281475119 37.02014757560744 0  374.9999996718656 33.49364886444181 0  368.9868479340393 30.13156202237255 0  362.8833392380029 26.93644017348339 0  356.6941085456942 23.91070967062674 0  350.4238558420009 21.0566681953261 0  344.0773426899492 18.37648307566465 0  337.6593885328982 15.87218960140942 0  331.1748670549786 13.54568949032341 0  324.6287025315056 11.39874946165088 0  318.0258660010876 9.432999863235466 0  311.3713716017894 7.649933468721599 0  304.6702726190621 6.050904302234756 0  297.9276578269805 4.637126656823085 0  291.148647441857 3.409674127905504 0  284.3383893425031 2.369478825079682 0  277.502055159398 1.517330660648639 0  270.6448362875833 0.853876741662134 0  263.7719400401456 0.3796208889774277 0  256.8885855592052 0.09492324285704967 0  243.1114143979462 0.09492324403817065 0  236.2280598850882 0.3796208931023841 0  229.3551635938215 0.8538767514891958 0  222.4979446968584 1.517330676558146 0  215.6616104703111 2.369478851036291 0  208.8513523382973 3.409674164591252 0  202.0723419066374 4.637126708856528 0  195.3297270659513 6.050904372824903 0  188.628628074828 7.649933550613184 0  181.9741336377093 9.432999965373938 0  175.3712970793675 11.39874958336037 0  168.8251325057572 13.54568964112298 0  162.340610986655 15.87218978129263 0  155.9226567874317 18.37648328793418 0  149.576143602509 21.05666843898663 0  143.3058908718157 23.91070994551046 0  137.1166601505524 26.93644048291054 0  131.0131514451933 30.13156235831508 0  124.9999996848412 33.49364923584736 0  119.0817711715717 37.0201479941652 0  113.2629601211624 40.70838066187849 0  107.5479852622251 44.55554644345162 0  101.9411864693332 48.55872385260452 0  96.44682143286516 52.71487295812284 0  91.06906254351222 57.02083760363669 0  85.81199358272519 61.4733479087879 0  80.67960667988106 66.06902271253972 0  75.67579930062769 70.80437212218331 0  70.80437129287643 75.67580015310926 0  66.06902193673014 80.67960752263491 0  61.47334718684866 85.81199441168215 0  57.02083692524275 91.0690633672404 0  52.71487232786438 96.44682224262129 0  48.55872328070024 101.941187247437 0  44.55554591578033 107.5479860232332 0  40.7083801742321 113.2629608675606 0  37.02014754791168 119.0817718975441 0  33.49364883372994 125.000000381329 0  30.13156199866361 131.0131521097709 0  26.9364401549829 137.1166607985551 0  23.91070965524918 143.3058914868915 0  21.05666818346614 149.576144185037 0  18.37648306853811 155.9226573275967 0  15.8721895918909 162.3406114925245 0  13.54568948170046 168.8251329701392 0  11.39874945301878 175.3712974960928 0  9.432999857087736 181.9741340206533 0  7.649933466342702 188.6286284076045 0  6.050904301250966 195.3297273853278 0  4.637126656808988 202.0723421730917 0  3.409674127767772 208.8513525589684 0  2.369478824521138 215.6616106615248 0  1.517330660909465 222.4979448382452 0  0.8538767414496533 229.355163714981 0  0.3796208887135322 236.2280599646376 0  0.09492324266324204 243.1114144478261 0  0.0949232442452228 256.8885856095658 0  0.3796208935834784 263.7719401236316 0  0.8538767530323526 270.6448364248016 0  1.517330679476544 277.5020553295092 0  2.369478854618649 284.3383895555228 0  3.409674170191892 291.1486476952655 0  4.6371267162381 297.9276581311522 0  6.050904381420935 304.6702729724059 0  7.649933562385399 311.3713719716595 0  9.43299997979841 318.0258664133013 0  11.3987495994252 324.6287029719946 0  13.54568965885832 331.174867545904 0  15.87218979367188 337.6593890464085 0  18.37648329843151 344.0773432384132 0  21.05666844777872 350.423856417535 0  23.91070995156048 356.6941091410045 0  26.93644048988043 362.8833398632205 0  30.13156235982007 368.9868485575877 0  33.49364924138357 375.0000003247478 0  37.0201480006036 380.9182288389023 0  40.70838066758398 386.7370398875706 0  44.55554644477201 392.4520147396792 0  48.55872386086904 398.0588135419111 0  52.71487295981296 403.5531785693063 0  57.02083760525949 408.9309374584583 0  61.47334790862246 414.1880064170849 0  66.06902271205095 419.320393319588 0  70.80437211216579 424.3242006890749 0  75.67580013809859 429.195628692521 0  80.6796075127923 433.930978054209 0  85.81199439754931 438.5266528008431 0  91.06906334717917 442.9791630582355 0  96.44682221438322 447.2851276501571 0  101.9411872243843 451.441276702356 0  107.5479859945825 455.4444540643537 0  113.2629608446994 459.2916198108319 0  119.0817718768376 462.9798524393601 0  125.0000003647644 466.5063511567065 0  131.0131521012763 469.8684379967393 0  137.1166607840049 473.0635598376539 0  143.3058914748804 476.0892903390826 0  149.5761441732679 478.9433318113714 0  155.9226573130112 481.6235169255377 0  162.3406114779862 484.1278104026658 0  168.8251329570439 486.4543105138039 0  175.3712974805475 488.601250542119 0  181.9741340135204 490.5670001408953 0  188.6286284005059 492.3500665318597 0  195.3297273788229 493.9490956972913 0  202.0723421640089 495.3628733414168 0  208.8513525529672 496.5903258712308 0  215.6616106544547 497.6305211744985 0  222.4979448327038 498.4826693384772 0  229.3551637102845 499.1461232581612 0  236.2280599621369 499.6203791111485 0  243.1114144470173 499.9050767573145 0  155.2373389820306 474.8197567317462 0  25.36256300907667 153.9152755065208 0  432.3709625126712 412.6214396304305 0  6.013151705810699 246.637913163471 0  246.6379131630491 493.986848294322 0  338.6995838441862 22.68244767887072 0  477.3175523131281 338.6995838660569 0  493.9868482700757 246.6379131399102 0  246.6201155078769 6.218451882810491 0  417.6179310263282 72.7156044707053 0  102.2232990934413 445.0100869616822 0  63.66330858966404 92.20354579482142 0  391.3105220491464 50.73522820883105 0  72.79295043967942 418.0702734974704 0  448.290574428537 108.25674339002 0  402.4604651193511 440.7462829841712 0  97.55317348421397 59.11376320116034 0  136.7376477664901 33.58246472647134 0  363.3288394375288 465.6947312928271 0  44.0678766556007 381.0860953771871 0  469.6905266180034 142.3890690100806 0  22.68244791668644 338.6995843487432 0  338.699584349159 477.317552078365 0  173.389488083762 18.6681884918202 0  483.4809734778481 179.7121987795732 0  13.50237455842738 306.4709525540879 0  305.9825168523021 487.24416992
[...]
<PointData  Vectors="f_12"> 
<DataArray  type="Float64"  Name="f_12"  NumberOfComponents="3" format="ascii">3.2031743419720323e-03 2.6791576349156615e-01 4.5608889164977545e-01  3.2440907097213557e-03 2.6549396483351051e-01 4.7200039627054519e-01  3.3796030764396130e-03 2.9188745524712101e-01 4.3776172810411640e-01  3.3754920013869543e-03 2.6739550342412333e-01 4.9775893967428586e-01  3.3797756114728713e-03 2.9198186742717736e-01 4.3756888403291089e-01  3.3797115376759178e-03 2.9204072371946682e-01 4.3740057632433760e-01  3.3794087248253130e-03 2.9207583075592364e-01 4.3724300633287477e-01  3.3788672016164443e-03 2.9208050022990334e-01 4.3710427895038950e-01  3.3780872966725382e-03 2.9205406718335453e-01 4.3698518689426397e-01  3.3770703599781946e-03 2.9199884601552761e-01 4.3688283182009968e-01  3.3758178402661745e-03 2.9191432310508736e-01 4.3679837877541644e-01  3.3743320423183292e-03 2.9180051488886227e-01 4.3673215335687177e-01  3.3726155768365696e-03 2.9165824892761671e-01 4.3668325874639341e-01  3.3706736535196627e-03 2.9148625322546284e-01 4.3665389922562320e-01  3.3685179752390220e-03 2.9128036846912753e-01 4.3665073730860243e-01  3.3661332727344126e-03 2.9105718437161582e-01 4.3665190052896657e-01  3.3635549216140194e-03 2.9079480893578247e-01 4.3668760877642993e-01  3.3607561426191694e-03 2.9051564007064157e-01 4.3672727594553185e-01  3.3577698830303715e-03 2.9020600258634988e-01 4.3679303715964252e-01  3.3545924978730605e-03 2.8987207238852020e-01 4.3687552881380176e-01  3.3512305792736726e-03 2.8951399165314257e-01 4.3697539029628130e-01  3.3477204294547554e-03 2.8912815929609559e-01 4.3710296907509028e-01  3.3440466648954064e-03 2.8872033644696105e-01 4.3724782142928148e-01  3.3401849202744091e-03 2.8829560368138679e-01 4.3739947627429465e-01  3.3361909404248059e-03 2.8784789105252434e-01 4.3757445393018196e-01  3.3320839385582858e-03 2.8737863973982014e-01 4.3777281521313627e-01  3.3279014498515877e-03 2.8688857292614867e-01 4.3799948305840564e-01  3.3235511318839314e-03 2.8638399448968821e-01 4.3823154205194159e-01  3.3190939805085823e-03 2.8586280967149957e-01 4.3848062915813379e-01  3.3146251059116083e-03 2.8532505613487807e-01 4.3876169813091015e-01  3.3100198153433623e-03 2.8477364949393041e-01 4.3905044850460512e-01  3.3053801817810543e-03 2.8420943921509040e-01 4.3936158763918237e-01  3.3007371810613016e-03 2.8363401110334857e-01 4.3969767245863617e-01  3.2959777589849745e-03 2.8304674048166062e-01 4.4004063428762435e-01  3.2912768955755756e-03 2.8245226832070591e-01 4.4041237419575097e-01  3.2865681561393099e-03 2.8185005655309608e-01 4.4080220366485251e-01  3.2817629072667896e-03 2.8123728419574873e-01 4.4119893745133520e-01  3.2770478678939598e-03 2.8062184759135894e-01 4.4162192348349810e-01  3.2724551146857727e-03 2.8000700625530089e-01 4.4207150467953965e-01  3.2678456839860472e-03 2.7938653601299140e-01 4.4253294384235176e-01  3.2632012063039998e-03 2.7875908389511722e-01 4.4300442299779352e-01  3.2587177407966926e-03 2.7813659463734697e-01 4.4350146625121445e-01  3.2543702394977969e-03 2.7751883291339330e-01 4.4401987307812002e-01  3.2500643196173643e-03 2.7689988600897847e-01 4.4455149539478672e-01  3.2458973042084377e-03 2.7628662893508615e-01 4.4510256178875113e-01  3.2418620121412597e-03 2.7567908369688954e-01 4.4567136002941105e-01  3.2379466390708208e-03 2.7507670919470767e-01 4.4625611104096230e-01  3.2341286798589527e-03 2.7447764999505769e-01 4.4685498310752525e-01  3.2305621790275482e-03 2.7389485707274680e-01 4.4747573750448832e-01  3.2271427858548535e-03 2.7332019063259705e-01 4.4811155912251516e-01  3.2238914188005680e-03 2.7275529519635716e-01 4.4876278917333123e-01  3.2208397024029258e-03 2.7220321253776170e-01 4.4943046034120715e-01  3.2179104023009443e-03 2.7165735608438812e-01 4.5010993942947070e-01  3.2153065496530911e-03 2.7113595453189793e-01 4.5081010454805398e-01  3.2128739414059543e-03 2.7062534818154449e-01 4.5152302675028144e-01  3.2106069462992607e-03 2.7012483772706120e-01 4.5224815027689463e-01  3.2086097240553338e-03 2.6964470089991144e-01 4.5298893697662956e-01  3.2068541955685764e-03 2.6918197874078736e-01 4.5374369439515572e-01  3.2053307594825890e-03 2.6873616656594040e-01 4.5451130087181352e-01  3.2038821513376719e-03 2.6829136230811529e-01 4.5528611176301303e-01  3.2022164219245651e-03 2.6750893620272398e-01 4.5688736905566935e-01  3.2016867242011839e-03 2.6713866446780393e-01 4.5770266570535839e-01  3.2013235514670182e-03 2.6677897213689122e-01 4.5852628416601965e-01  3.2013494497390017e-03 2.6645417173662644e-01 4.5936328354911904e-01  3.2016286605394480e-03 2.6614934146577640e-01 4.6020954214630477e-01  3.2021232859347293e-03 2.6586135135314504e-01 4.6106351128387491e-01  3.2027904363661091e-03 2.6558482657752763e-01 4.6192406997076679e-01  3.2037938900843820e-03 2.6533829953159294e-01 4.6279384469886348e-01  3.2050227948830310e-03 2.6510977826699356e-01 4.6366997415103345e-01  3.2064467807271318e-03 2.6489649043674546e-01 4.6455146684737691e-01  3.2082707972613798e-03 2.6472118562201052e-01 4.6544051969971340e-01  3.2101728518759269e-03 2.6454820130591550e-01 4.6633215564010588e-01  3.2122502421346620e-03 2.6438915902415489e-01 4.6722716979895912e-01  3.2146904066878671e-03 2.6426551925455688e-01 4.6812675304963708e-01  3.2173332434286472e-03 2.6415982699363699e-01 4.6902833711770037e-01  3.2201668364415085e-03 2.6407042573849793e-01 4.6993124816120774e-01  3.2231853490104654e-03 2.6399745578861566e-01 4.7083474861395730e-01  3.2263729630970708e-03 2.6393943991009761e-01 4.7173810805321098e-01  3.2297623689869649e-03 2.6390098388282823e-01 4.7264051639434584e-01  3.2334168645899619e-03 2.6389033703918818e-01 4.7354040285330734e-01  3.2370451054120038e-03 2.6387147941514749e-01 4.7443881767120211e-01  3.2409621554808608e-03 2.6388635495762325e-01 4.7533259337480266e-01  3.2449417065684044e-03 2.6390505681736154e-01 4.7622259957547991e-01  3.2491113922104211e-03 2.6394526847602712e-01 4.7710653133983988e-01  3.2533505904270683e-03 2.6399234674401079e-01 4.7798491481799488e-01  3.2577147478581917e-03 2.6405411119388983e-01 4.7885580979134212e-01  3.2621774420336278e-03 2.6412817353497897e-01 4.7971844676487868e-01  3.2667190968004903e-03 2.6421263155445868e-01 4.8057208860992162e-01  3.2713267431466143e-03 2.6430677034772443e-01 4.8141585127755437e-01  3.2759775317328503e-03 2.6440800956600397e-01 4.8224916975098181e-01  3.2806804561006601e-03 2.6451908489865983e-01 4.8307034585189523e-01  3.2854089809870660e-03 2.6463698160611426e-01 4.8387885885413900e-01  3.2901111929841218e-03 2.6475407507362175e-01 4.8467628719246331e-01  3.2948420175883605e-03 2.6488155639226763e-01 4.8545788229680353e-01  3.2996184047631473e-03 2.6502408844909453e-01 4.8621997392179495e-01  3.3042867657739872e-03 2.6515522075585052e-01 4.8697199107509515e-01  3.3089112420458988e-03 2.6528805424197671e-01 4.8770768426550276e-01  3.3135387499960180e-03 2.6543370095049368e-01 4.8842050326424680e-01  3.3180471595833233e-03 2.6556916798793789e-01 4.8912047548978504e-01  3.3224744669586147e-03 2.6570389192694710e-01 4.8980175899989836e-01  3.3268673570524122e-03 2.6585129209827746e-01 4.9045570713066483e-01  3.3311347598498908e-03 2.6599217858684632e-01 4.9109092398527160e-01  3.3352679933790577e-03 2.6612591630603605e-01 4.9170817714241188e-01  3.3392680114793637e-03 2.6625476230015105e-01 4.9230457696985913e-01  3.3431453753250051e-03 2.6638398611838698e-01 4.9287505656830333e-01  3.3468665426359058e-03 2.6650633091242681e-01 4.9342385830290336e-01  3.3504304178503691e-03 2.6662390298568839e-01 4.9394834291257711e-01  3.3538285442806723e-03 2.6673679330701855e-01 4.9444718405095683e-01  3.3570456086663529e-03 2.6684182324374150e-01 4.9492207559663104e-01  3.3600718660106066e-03 2.6693680887481847e-01 4.9537428094704311e-01  3.3629080226291385e-03 2.6702651577468883e-01 4.9579826974069885e-01  3.3655483235611465e-03 2.6711209725557555e-01 4.9619206107936237e-01  3.3679783852755872e-03 2.6718862429441864e-01 4.9655944951152126e-01  3.3701916615892350e-03 2.6725520696056088e-01 4.9690005769535894e-01  3.3721851901021291e-03 2.6731262639208314e-01 4.9721307012538135e-01  3.3739524344887492e-03 2.6735860230970404e-01 4.9750033679828359e-01  3.3767922857137140e-03 2.6743077862817299e-01 4.9797718921916045e-01  3.3778730444268164e-03 2.6743431344094681e-01 4.9819544767923674e-01  3.3787064457401366e-03 2.6745245079595276e-01 4.9835380231613430e-01  3.3793039884909360e-03 2.6744827993669584e-01 4.9849802775820318e-01  3.3796619920049946e-03 2.6743520296534623e-01 4.9861115908976000e-01  3.3797818495697441e-03 2.6741450277051998e-01 4.9869171609816521e-01  3.3796651723214492e-03 2.6738334894381394e-01 4.9874418101203455e-01  3.3793116988244886e-03 2.6734061152945482e-01 4.9876903749856000e-01  3.3787266459467734e-03 2.6729375353692708e-01 4.9875769146570276e-01  3.3779073078893862e-03 2.6722411599353263e-01 4.9873251036167920e-01  3.3768636179539015e-03 2.6715833168863451e-01 4.9866420125633015e-01  3.3755998065451288e-03 2.6708192217648030e-01 4.9856885009534302e-01  3.3741212580813873e-03 2.6700054507990256e-01 4.9844008065135598e-01  3.3724209378951627e-03 2.6689976007953603e-01 4.9829637640915914e-01  3.3705179798519578e-03 2.6679461119172831e-01 4.9812019258416107e-01  3.3684235848229329e-03 2.6668815787322842e-01 4.9791006032119950e-01  3.3661353410741964e-03 2.6657275193910696e-01 4.9767458842792578e-01  3.3636660077189569e-03 2.6645223248320959e-01 4.9741116429671828e-01  3.3610217629201165e-03 2.6632583923106712e-01 4.9712128735501443e-01  3.3582066481858013e-03 2.6619240010136280e-01 4.9680667005629880e-01  3.3552441194642981e-03 2.6605822357997960e-01 4.9646326232723420e-01  3.3521487967229542e-03 2.6592535640140397e-01 4.9609047264962614e-01  3.3489115456647347e-03 2.6578681116079933e-01 4.9569525039919288e-01  3.3455449196511150e-03 2.6564464961028911e-01 4.9527682929213435e-01  3.3420650971482126e-03 2.6550136799268031e-01 4.9483423636888829e-01  3.3384868117960734e-03 2.6535867728558449e-01 4.9436752302254666e-01  3.3348247043679239e-03 2.6521810040982380e-01 4.9387695091191752e-01  3.3310849660416813e-03 2.6507881684605517e-01 4.9336420531729408e-01  3.3272853165524246e-03 2.6494297753549795e-01 4.9282919157212612e-01  3.3234356158652247e-03 2.6481077807285996e-01 4.9227296819851740e-01  3.3195460512163628e-03 2.6468247060756400e-01 4.9169651847723911e-01  3.3156302924102735e-03 2.6455915751463088e-01 4.9110041361944884e-01  3.3116822190816146e-03 2.6443823916690118e-01 4.9048695680014781e-01  3.3077366292164727e-03 2.6432467343660926e-01 4.8985485977208415e-01  3.3038353529538634e-03 2.6422538197957418e-01 4.8920246363664166e-01  3.2999537386275281e-03 2.6413345919491410e-01 4.8853398887839866e-01  3.2961186657833172e-03 2.6405239970985561e-01 4.8784895698726910e-01  3.2923188982017502e-03 2.6397899316898848e-01 4.8714972776037513e-01  3.2885757511252672e-03 2.6391574222542247e-01 4.8643638083651480e-01  3.2848705390281893e-03 2.6385847768186138e-01 4.8571089470360251e-01  3.2813185694598825e-03 2.6382505937202444e-01 4.8496944214376531e-01  3.2778937104218659e-03 2.6380967121879384e-01 4.8421473039786145e-01  3.2744635167464560e-03 2.6379036953582963e-01 4.8345321205362846e-01  3.2712166488066551e-03 2.6379600631784517e-01 4.8267869624912091e-01  3.2681229157836091e-03 2.6382117860562121e-01 4.8189373359999677e-01  3.2652201816319231e-03 2.6386912445329769e-01 4.8109864691298476e-01  3.2623064962304118e-03 2.6391023122298440e-01 4.8029944924846191e-01  3.2597308387125848e-03 2.6399580715626458e-01 4.7948863497626509e-01  3.2572049711606706e-03 2.6408182116403700e-01 4.7867394151107739e-01  3.2549543539041369e-03 2.6419998619119955e-01 4.7785148770961400e-01  3.2526807217664114e-03 2.6430877765302435e-01 4.7702702649822848e-01  3.2507305470100348e-03 2.6445519076009816e-01 4.7619605104165519e-01  3.2490315204374903e-03 2.6462867488674924e-01 4.7536092822660936e-01  3.2474969284172267e-03 2.6481685338965361e-01 4.7452335533247336e-01  3.2461853970011459e-03 2.6502692223404467e-01 4.7368353055609469e-01  3.2450631088122928e-03 2.6525449075910595e-01 4.7284233897194455e-01  3.2434107917928964e-03 2.6576318002717531e-01 4.7115813522343886e-01  3.2429723772286552e-03 2.6605566389723911e-01 4.7031646925347198e-01  3.2426988113718864e-03 2.6636120934248275e-01 4.6947580476996487e-01  3.2426802755157530e-03 2.6669092443494019e-01 4.6863702142310021e-01  3.2428681339083175e-03 2.6703859178937683e-01 4.6780050522576894e-01  3.2432790453605928e-03 2.6740602847588757e-01 4.6696693549365936e-01  3.2439065541308332e-03 2.6779226120713701e-01 4.6613683441597470e-01  3.2447573427868727e-03 2.6819808500673414e-01 4.6531085323256460e-01  3.2458342121976310e-03 2.6862364559236934e-01 4.6448964069132165e-01  3.2471428355504849e-03 2.6906940403806762e-01 4.6367394741980283e-01  3.2486429845619527e-03 2.6953068293690902e-01 4.6286366732717382e-01  3.2504093303927324e-03 2.7001539441855299e-01 4.6206102884782951e-01  3.2522799846040474e-03 2.7050617401270777e-01 4.6126295418792823e-01  3.2543844568970999e-03 2.7101657480865093e-01 4.6047309806147529e-01  3.2567135713730540e-03 2.7154554866017405e-01 4.5969194459809948e-01  3.2590443645836207e-03 2.7207055015878417e-01 4.5891352525228651e-01  3.2616575515641726e-03 2.7261972332184475e-01 4.5814671421855013e-01  3.2645211588500219e-03 2.7318977073565121e-01 4.5739176848592428e-01  3.2674643174215347e-03 2.7376325191830558e-01 4.5664366893838843e-01  3.2705348380347317e-03 2.7434542009971796e-01 4.5590436933782963e-01  3.2737318675935315e-03 2.7493558178831429e-01 4.5517473124288121e-01  3.2770694534612439e-03 2.7553508448374375e-01 4.5445604075547835e-01  3.2805150668307639e-03 2.7614090052933044e-01 4.5374771265211666e-01  3.2840421559204324e-03 2.7675056123781416e-01 4.5304911722405655e-01  3.2877215738595718e-03 2.7736941915184943e-01 4.5236536092673540e-01  3.2914356598363567e-03 2.7798790709753435e-01 4.5169047549683300e-01  3.2951930822674898e-03 2.7860646062354510e-01 4.5102598466854382e-01  3.2990741071757530e-03 2.7923045703260918e-01 4.5037827225016319e-01  3.3029576474371360e-03 2.7985083604885735e-01 4.4974032556147742e-01  3.3068588195148160e-03 2.8046844644769248e-01 4.4911404299931224e-01  3.3107789216107958e-03 2.8108279685842819e-01 4.4850087936035571e-01  3.3147168092045260e-03 2.8169319213410249e-01 4.4790210672485997e-01  3.3186449726523913e-03 2.8229738981021690e-01 4.4731685938903093e-01  3.3225394446674238e-03 2.8289375058199728e-01 4.4674400077254772e-01  3.3263768984969884e-03 2.8348102329224917e-01 4.4618199437531092e-01  3.3302175891481611e-03 2.8405933510858011e-01 4.4564086453033136e-01  3.3339955609225573e-03 2.8462608759054281e-01 4.4511388009619535e-01  3.3376382997686591e-03 2.8518010163306418e-01 4.4459180918122088e-01  3.3412341015573352e-03 2.8572054384304130e-01 4.4409027049832378e-01  3.3447423821037323e-03 2.8624570402286931e-01 4.4360528310423519e-01  3.3481285964015437e-03 2.8675508778730319e-01 4.4313272498838352e-01  3.3514000498965761e-03 2.8724680370863620e-01 4.4267662449792256e-01  3.3545328205265602e-03 2.8772090493884361e-01 4.4223378307315636e-01  3.3575368511125406e-03 2.8817382129690550e-01 4.4181042530594933e-01  3.3603782817631894e-03 2.8860764911234282e-01 4.4139944014939181e-01  3.3630617388896830e-03 2.8901897923321856e-01 4.4100587545851527e-01  3.3655766204079077e-03 2.8940732840915523e-01 4.4062940910536880e-01  3.3679031320197521e-03 2.8977413007936609e-01 4.4026537177439518e-01  3.3700473996541788e-03 2.9011469974185433e-01 4.3992122596194905e-01  3.3719968491454397e-03 2.9042963979329173e-01 4.3959423084769123e-01  3.3737369863691678e-03 2.9072097827323001e-01 4.3928024236928215e-01  3.3752701824911230e-03 2.9098473876180420e-01 4.3898457705520816e-01  3.3765892241460608e-03 2.9121792296280569e-01 4.3871093175976705e-01  3.3776858782254495e-03 2.9142643536314750e-01 4.3844969147794483e-01  3.3785546229729325e-03 2.9160822345374005e-01 4.3820330732117485e-01  3.3791963585105278e-03 2.9175851392812396e-01 4.3797885530544128e-01  3.3544382929783507e-03 2.8739593322269169e-01 4.4304729578198493e-01  3.2813642576512889e-03 2.6431874431095287e-01 4.8367929386616754e-01  3.2965288028315204e-03 2.8277114104609580e-01 4.4087817684454117e-01  3.2509478108518073e-03 2.6595488552638191e-01 4.7240452151967272e-01  3.3794654480213938e-03 2.9157056686682320e-01 4.3855640199708978e-01  3.3389171683842148e-03 2.6653515109785353e-01 4.9147439482396038e-01  3.2419672378941641e-03 2.7511568620537014e-01 4.4710805631718054e-01  3.2098683407464634e-03 2.6823783482315949e-01 4.5682814306740971e-01  3.3762749141933945e-03 2.6768736330891918e-01 4.9716477013115218e-01  3.2780562495995742e-03 2.6484642307229367e-01 4.8157730745054550e-01  3.3230110960666033e-03 2.8264063221637103e-01 4.4749846143828764e-01  3.3205139800849756e-03 2.6505961413850504e-01 4.9091755517566676e-01  3.3009079316064314e-03 2.6537861853233369e-01 4.8557284342491003e-01  3.3010947892213043e-03 2.7913118779804508e-01 4.5110152456519670e-01  3.2488958759846146e-03 2.6446814569670102e-01 4.7567676524403157e-01  3.3236965623197052e-03 2.8609301820304817e-01 4.3902197042191071e-01  3.3456827389571754e-03 2.6594311402314530e-01 4.9450928703949554e-01  3.3656896135865573e-03 2.6682020343206486e-01 4.9690733883653382e-01  3.3505244905137990e-03 2.8912738008776695e-01 4.3780592519617528e-01  3.2773423309854131e-03 2.7500731606530704e-01 4.5582970943058981e-01  3.2275043808077121e-03 2.6454073768400904e-01 4.7042659628619976e-01  3.2592750038829103e-03 2.7121136118684580e-01 4.6110573524541837e-01  3.3628023348590860e-03 2.9044720625685128e-01 4.3742192413423137e-01  3.3763677111688217e-03 2.6741415613883984e-01 4.9786794812452273e-01  3.2148654455139243e-03 2.6539512383429620e-01 4.6524702215213859e-01  3.2526493540720471e-03 2.6901706889196969e-01 4.6507154709308579e-01  3.3738478436669927e-03 2.9147998329020475e-01 4.3745828477024307e-01  3.3697089043680534e-03 2.8975380063160372e-01 4.4077535835990383e-01  3.2641509238991286e-03 2.6461157807382640e-01 4.7890612900517243e-01  3.3593553781667853e-03 2.6719304513010556e-01 4.9453021555710275e-01  3.2233483581672216e-03 2.7183799615505039e-01 4.5093364042034406e-01  3.2705866849508450e-03 2.7935781944883847e-01 4.4326258144652958e-01  3.3797468089564117e-03 2.6764053549004269e-01 4.9807596783289149e-01  3.2096595081942520e-03 2.6626993688680151e-01 4.6177910498148922e-01  3.2492355511681190e-03 2.6741981477826987e-01 4.6829793476642689e-01  3.3785225834777012e-03 2.9180636730776460e-01 4.3774889267528166e-01  3.3179447499391791e-03 2.6584847188838229e-01 4.8834911328874753e-01  3.2979909173788354e-03 2.6448487523734082e-01 4.8713731896466572e-01  3.3762303962287686e-03 2.9087695648804446e-01 4.3951890087973083e-01  3.3415070766264899e-03 2.8541545295555443e-01 4.4493517582082737e-01  3.2563024864855662e-03 2.6519377024766422e-01 4.7559034175567383e-01  3.3693037282805805e-03 2.6749934308509832e-01 4.9604330824585574e-01  3.2151403526897537e-03 2.6996860829096997e-01 4.5370233337946231e-01  3.3362396735914885e-03 2.8748436279479067e-01 4.3852217162285739e-01  3.2327541406420787e-03 2.7348709966521567e-01 4.4901539348825598e-01  3.3790899464315924e-03 2.6768073900888556e-01 4.9782601708155888e-01  3.3497513828026487e-03 2.6687467836709489e-01 4.9312002527230708e-01  3.2098480725729125e-03 2.6727034424431911e-01 4.5928317046471429e-01  3.2652144900642134e-03 2.6462634322055140e-01 4.7912023558584066e-01  3.3628785721260884e-03 2.8867225171213245e-01 4.4185827470334427e-01  3.2838495285081597e-03 2.8106588848550346e-01 4.4213527921171664e-01  3.2910601648931869e-03 2.7738448768524548e-01 4.5310743520346342e-01  3.3550500102919327e-03 2.6634899643673987e-01 4.9564591647898926e-01  3.2684600330360305e-03 2.7330795820504877e-01 4.5800119499410558e-01  3.2719984624826515e-03 2.6440805172597409e-01 4.8126080479842370e-01  3.2574350213063520e-03 2.7746674150167022e-01 4.4487980823614792e-01  3.3122475645