<?xml version="1.0"?>
<VTKFile type="UnstructuredGrid"  version="0.1"  >
<UnstructuredGrid>
<Piece  NumberOfPoints="4940" NumberOfCells="9650">
<Points>
<DataArray  type="Float64"  NumberOfComponents="3"  format="ascii">500 250 0  0 250 0  250 500 0  250 0 0  256.8885856082646 499.9050767557906 0  263.7719401218049 499.6203791065173 0  270.6448364229772 499.1461232471188 0  277.5020553257866 498.4826693209355 0  284.3383895508592 497.6305211460281 0  291.1486476865662 496.5903258312597 0  297.9276581259182 495.3628732847843 0  304.6702729675493 493.9490956196674 0  311.3713719748657 492.3500664368026 0  318.0258664141369 490.5670000199653 0  324.6287029687753 488.6012504015818 0  331.1748675330201 486.4543103455647 0  337.6593890460416 484.1278102064655 0  344.0773432429536 481.6235166997244 0  350.4238564271474 478.9433315480048 0  356.694109139292 476.0892900492477 0  362.88333985546 473.0635595140469 0  368.9868485575419 469.8684376402048 0  375.0000003153078 466.5063507640667 0  380.9182288257928 462.9798520074548 0  386.7370398729688 459.2916193419558 0  392.4520147244077 455.444453565817 0  398.0588135356345 451.4412761437442 0  403.5531785622926 447.285127045646 0  408.9309374414144 442.9791624087773 0  414.1880064015299 438.5266521049243 0  419.3203932989752 433.9309773069245 0  424.324200661095 429.1956279150535 0  429.1956286596235 424.3241998957182 0  433.9309780058756 419.3203925397119 0  438.5266527445345 414.1880056671062 0  442.9791630130591 408.9309367076756 0  447.2851276060475 403.5531778422888 0  451.4412766621026 398.0588128303826 0  455.4444540361634 392.4520140460735 0  459.2916197786263 386.7370392045948 0  462.9798524073514 380.9182281752347 0  466.5063511234856 374.9999996927758 0  469.8684379657123 368.9868479560565 0  473.0635598144817 362.8833392617846 0  476.0892903190255 356.6941085676214 0  478.9433317963513 350.4238558609745 0  481.6235169154735 344.0773427117675 0  484.12781039012 337.6593885555221 0  486.4543105028062 331.1748670749914 0  488.601250531677 324.6287025528375 0  490.5670001317469 318.0258660188321 0  492.3500665291326 311.3713716102628 0  493.949095695951 304.6702726271575 0  495.3628733416623 297.9276578347343 0  496.5903258712341 291.1486474470129 0  497.6305211749058 284.3383893426084 0  498.4826693388848 277.502055163614 0  499.1461232580606 270.6448362909296 0  499.6203791109319 263.7719400417897 0  499.9050767571306 256.8885855596534 0  499.9050767559877 243.1114143988867 0  499.6203791069493 236.2280598860241 0  499.1461232485393 229.3551635941651 0  498.4826693235677 222.4979446979962 0  497.6305211491849 215.6616104719064 0  496.5903258357701 208.8513523404629 0  495.3628732906988 202.0723419043604 0  493.9490956264813 195.3297270628552 0  492.3500664487791 188.6286280724281 0  490.5670000344809 181.9741336371959 0  488.6012504175981 175.3712970824318 0  486.4543103623226 168.8251325157939 0  484.1278102222298 162.3406109960628 0  481.6235167152198 155.9226567951971 0  478.9433315621651 149.5761436051346 0  476.0892900516498 143.3058908657982 0  473.063559513628 137.1166601437124 0  469.8684376406648 131.0131514433083 0  466.5063507675389 124.9999996907064 0  462.9798520124137 119.0817711822745 0  459.2916193464549 113.2629601339176 0  455.4444535642773 107.5479852733717 0  451.4412761528674 101.9411864767781 0  447.2851270583545 96.44682145403524 0  442.9791624165781 91.06906256805769 0  438.5266521117469 85.81199360630404 0  433.9309773156125 80.67960671046254 0  429.1956279150353 75.67579933888632 0  424.3241998888952 70.80437133373906 0  419.3203925223282 66.06902197812161 0  414.1880056411937 61.47334723289828 0  408.9309366751728 57.0208369601728 0  403.5531778009394 52.71487236176898 0  398.058812796452 48.55872331295853 0  392.4520140187753 44.55554594490843 0  386.7370391799677 40.70838020528396 0  380.9182281475119 37.02014757560744 0  374.9999996718656 33.49364886444181 0  368.9868479340393 30.13156202237255 0  362.8833392380029 26.93644017348339 0  356.6941085456942 23.91070967062674 0  350.4238558420009 21.0566681953261 0  344.0773426899492 18.37648307566465 0  337.6593885328982 15.87218960140942 0  331.1748670549786 13.54568949032341 0  324.6287025315056 11.39874946165088 0  318.0258660010876 9.432999863235466 0  311.3713716017894 7.649933468721599 0  304.6702726190621 6.050904302234756 0  297.9276578269805 4.637126656823085 0  291.148647441857 3.409674127905504 0  284.3383893425031 2.369478825079682 0  277.502055159398 1.517330660648639 0  270.6448362875833 0.853876741662134 0  263.7719400401456 0.3796208889774277 0  256.8885855592052 0.09492324285704967 0  243.1114143979462 0.09492324403817065 0  236.2280598850882 0.3796208931023841 0  229.3551635938215 0.8538767514891958 0  222.4979446968584 1.517330676558146 0  215.6616104703111 2.369478851036291 0  208.8513523382973 3.409674164591252 0  202.0723419066374 4.637126708856528 0  195.3297270659513 6.050904372824903 0  188.628628074828 7.649933550613184 0  181.9741336377093 9.432999965373938 0  175.3712970793675 11.39874958336037 0  168.8251325057572 13.54568964112298 0  162.340610986655 15.87218978129263 0  155.9226567874317 18.37648328793418 0  149.576143602509 21.05666843898663 0  143.3058908718157 23.91070994551046 0  137.1166601505524 26.93644048291054 0  131.0131514451933 30.13156235831508 0  124.9999996848412 33.49364923584736 0  119.0817711715717 37.0201479941652 0  113.2629601211624 40.70838066187849 0  107.5479852622251 44.55554644345162 0  101.9411864693332 48.55872385260452 0  96.44682143286516 52.71487295812284 0  91.06906254351222 57.02083760363669 0  85.81199358272519 61.4733479087879 0  80.67960667988106 66.06902271253972 0  75.67579930062769 70.80437212218331 0  70.80437129287643 75.67580015310926 0  66.06902193673014 80.67960752263491 0  61.47334718684866 85.81199441168215 0  57.02083692524275 91.0690633672404 0  52.71487232786438 96.44682224262129 0  48.55872328070024 101.941187247437 0  44.55554591578033 107.5479860232332 0  40.7083801742321 113.2629608675606 0  37.02014754791168 119.0817718975441 0  33.49364883372994 125.000000381329 0  30.13156199866361 131.0131521097709 0  26.9364401549829 137.1166607985551 0  23.91070965524918 143.3058914868915 0  21.05666818346614 149.576144185037 0  18.37648306853811 155.9226573275967 0  15.8721895918909 162.3406114925245 0  13.54568948170046 168.8251329701392 0  11.39874945301878 175.3712974960928 0  9.432999857087736 181.9741340206533 0  7.649933466342702 188.6286284076045 0  6.050904301250966 195.3297273853278 0  4.637126656808988 202.0723421730917 0  3.409674127767772 208.8513525589684 0  2.369478824521138 215.6616106615248 0  1.517330660909465 222.4979448382452 0  0.8538767414496533 229.355163714981 0  0.3796208887135322 236.2280599646376 0  0.09492324266324204 243.1114144478261 0  0.0949232442452228 256.8885856095658 0  0.3796208935834784 263.7719401236316 0  0.8538767530323526 270.6448364248016 0  1.517330679476544 277.5020553295092 0  2.369478854618649 284.3383895555228 0  3.409674170191892 291.1486476952655 0  4.6371267162381 297.9276581311522 0  6.050904381420935 304.6702729724059 0  7.649933562385399 311.3713719716595 0  9.43299997979841 318.0258664133013 0  11.3987495994252 324.6287029719946 0  13.54568965885832 331.174867545904 0  15.87218979367188 337.6593890464085 0  18.37648329843151 344.0773432384132 0  21.05666844777872 350.423856417535 0  23.91070995156048 356.6941091410045 0  26.93644048988043 362.8833398632205 0  30.13156235982007 368.9868485575877 0  33.49364924138357 375.0000003247478 0  37.0201480006036 380.9182288389023 0  40.70838066758398 386.7370398875706 0  44.55554644477201 392.4520147396792 0  48.55872386086904 398.0588135419111 0  52.71487295981296 403.5531785693063 0  57.02083760525949 408.9309374584583 0  61.47334790862246 414.1880064170849 0  66.06902271205095 419.320393319588 0  70.80437211216579 424.3242006890749 0  75.67580013809859 429.195628692521 0  80.6796075127923 433.930978054209 0  85.81199439754931 438.5266528008431 0  91.06906334717917 442.9791630582355 0  96.44682221438322 447.2851276501571 0  101.9411872243843 451.441276702356 0  107.5479859945825 455.4444540643537 0  113.2629608446994 459.2916198108319 0  119.0817718768376 462.9798524393601 0  125.0000003647644 466.5063511567065 0  131.0131521012763 469.8684379967393 0  137.1166607840049 473.0635598376539 0  143.3058914748804 476.0892903390826 0  149.5761441732679 478.9433318113714 0  155.9226573130112 481.6235169255377 0  162.3406114779862 484.1278104026658 0  168.8251329570439 486.4543105138039 0  175.3712974805475 488.601250542119 0  181.9741340135204 490.5670001408953 0  188.6286284005059 492.3500665318597 0  195.3297273788229 493.9490956972913 0  202.0723421640089 495.3628733414168 0  208.8513525529672 496.5903258712308 0  215.6616106544547 497.6305211744985 0  222.4979448327038 498.4826693384772 0  229.3551637102845 499.1461232581612 0  236.2280599621369 499.6203791111485 0  243.1114144470173 499.9050767573145 0  155.2373389820306 474.8197567317462 0  25.36256300907667 153.9152755065208 0  432.3709625126712 412.6214396304305 0  6.013151705810699 246.637913163471 0  246.6379131630491 493.986848294322 0  338.6995838441862 22.68244767887072 0  477.3175523131281 338.6995838660569 0  493.9868482700757 246.6379131399102 0  246.6201155078769 6.218451882810491 0  417.6179310263282 72.7156044707053 0  102.2232990934413 445.0100869616822 0  63.66330858966404 92.20354579482142 0  391.3105220491464 50.73522820883105 0  72.79295043967942 418.0702734974704 0  448.290574428537 108.25674339002 0  402.4604651193511 440.7462829841712 0  97.55317348421397 59.11376320116034 0  136.7376477664901 33.58246472647134 0  363.3288394375288 465.6947312928271 0  44.0678766556007 381.0860953771871 0  469.6905266180034 142.3890690100806 0  22.68244791668644 338.6995843487432 0  338.699584349159 477.317552078365 0  173.389488083762 18.6681884918202 0  483.4809734778481 179.7121987795732 0  13.50237455842738 306.4709525540879 0  305.9825168523021 487.24416992
[...]
<PointData  Vectors="f_12"> 
<DataArray  type="Float64"  Name="f_12"  NumberOfComponents="3" format="ascii">4.8504880498554326e-01 1.1803321582701816e-01 1.3381876568685125e-01  4.8916060355662244e-01 1.0423819027818695e-01 1.5698769252061609e-01  4.8291242495986253e-01 1.3253205782919036e-01 1.1799439630562625e-01  5.0081881245271265e-01 8.7225201591601534e-02 2.1298205730271630e-01  4.8289368868185228e-01 1.3273043553652084e-01 1.1781717838490187e-01  4.8287691369607277e-01 1.3291035549568522e-01 1.1765724900555305e-01  4.8286087137233219e-01 1.3308433239073855e-01 1.1750325692394817e-01  4.8284648220032950e-01 1.3324204436100945e-01 1.1736422321615170e-01  4.8283331191157125e-01 1.3338790315821974e-01 1.1723614148922822e-01  4.8282140569018711e-01 1.3352091242602204e-01 1.1711972335772525e-01  4.8281073944838199e-01 1.3364106837969500e-01 1.1701488200488996e-01  4.8280120973924007e-01 1.3374923408828443e-01 1.1692076647453264e-01  4.8279290778909939e-01 1.3384408285878535e-01 1.1683843728147557e-01  4.8278590940018445e-01 1.3392453529984938e-01 1.1676876270543615e-01  4.8278090515076238e-01 1.3398241869503802e-01 1.1671874673034836e-01  4.8277565184168314e-01 1.3404320727211888e-01 1.1666622762522968e-01  4.8277365036288628e-01 1.3406660046165642e-01 1.1664609079537902e-01  4.8277172193663603e-01 1.3408901471356305e-01 1.1662675720426671e-01  4.8277139552198617e-01 1.3409283662998348e-01 1.1662346925816133e-01  4.8277230060743698e-01 1.3408228416558687e-01 1.1663256115075891e-01  4.8277434353969534e-01 1.3405839915501711e-01 1.1665311988091061e-01  4.8277849513078025e-01 1.3401028759685538e-01 1.1669466377469696e-01  4.8278418782226007e-01 1.3394453331454434e-01 1.1675150997510157e-01  4.8279057698975497e-01 1.3387088929477206e-01 1.1681522618683071e-01  4.8279861972929022e-01 1.3377874219960595e-01 1.1689512745455441e-01  4.8280874288360726e-01 1.3366371273574684e-01 1.1699517398325214e-01  4.8282111313197551e-01 1.3352433379117915e-01 1.1711677975171501e-01  4.8283430489895413e-01 1.3337694369696759e-01 1.1724577896765459e-01  4.8284924372731103e-01 1.3321176746706861e-01 1.1739091243568582e-01  4.8286695687770048e-01 1.3301827853037984e-01 1.1756170562414668e-01  4.8288596009404428e-01 1.3281330121316723e-01 1.1774351256850518e-01  4.8290726115073118e-01 1.3258678821081535e-01 1.1794552540952043e-01  4.8293077285045122e-01 1.3234049831262740e-01 1.1816646292765205e-01  4.8295607224835591e-01 1.3207960945321426e-01 1.1840194484642955e-01  4.8298461207421955e-01 1.3179045400558581e-01 1.1866477601430210e-01  4.8301538854006099e-01 1.3148439601789239e-01 1.1894506162119987e-01  4.8304799046144292e-01 1.3116619928713294e-01 1.1923869399463138e-01  4.8308403570271408e-01 1.3082158853615047e-01 1.1955941981422329e-01  4.8312371262866616e-01 1.3045057168518057e-01 1.1990793316409275e-01  4.8316571377537493e-01 1.3006646842771186e-01 1.2027216085545933e-01  4.8321008326148174e-01 1.2966997021918808e-01 1.2065189506917522e-01  4.8325842185921458e-01 1.2924841903231893e-01 1.2105994706108932e-01  4.8331079515131209e-01 1.2880285748566545e-01 1.2149600491350261e-01  4.8336628446724211e-01 1.2834311465854981e-01 1.2195133440568776e-01  4.8342585833014101e-01 1.2786261933454943e-01 1.2243310923692495e-01  4.8348937935697145e-01 1.2736412255419569e-01 1.2293934324161192e-01  4.8355685007474325e-01 1.2684932070359833e-01 1.2346914492296315e-01  4.8362830757192582e-01 1.2631971194805894e-01 1.2402185363416286e-01  4.8370546383968743e-01 1.2576477111109752e-01 1.2460957802627076e-01  4.8378672004188294e-01 1.2519741877074836e-01 1.2521938976612873e-01  4.8387286750203862e-01 1.2461465073988312e-01 1.2585589694838542e-01  4.8396400291398095e-01 1.2401659540618480e-01 1.2651943058953100e-01  4.8406029021002683e-01 1.2340489530507349e-01 1.2720974771756893e-01  4.8416270126853056e-01 1.2277483513317247e-01 1.2793307945608848e-01  4.8427051483160521e-01 1.2213288000712894e-01 1.2868329062828232e-01  4.8438378164871765e-01 1.2148063480884434e-01 1.2945975031390350e-01  4.8450355728755801e-01 1.2081336924312526e-01 1.3026904116630514e-01  4.8462949518059523e-01 1.2013546745113278e-01 1.3110754226869051e-01  4.8476128974778260e-01 1.1944886669970955e-01 1.3197318883306006e-01  4.8489785730658769e-01 1.1875953822045730e-01 1.3285860954359513e-01  4.8519953024121032e-01 1.1732273460896869e-01 1.3477013234132490e-01  4.8535889156021272e-01 1.1660149841666825e-01 1.3576049715089814e-01  4.8552502712980639e-01 1.1587589271347869e-01 1.3677951916449918e-01  4.8569967574520578e-01 1.1513870548037118e-01 1.3783784472694685e-01  4.8588154565649078e-01 1.1439914378071275e-01 1.3892562033142761e-01  4.8607070850940498e-01 1.1365541387285605e-01 1.4004432064051697e-01  4.8626789185977742e-01 1.1290877995514656e-01 1.4119606729777398e-01  4.8647284692055165e-01 1.1215950251727055e-01 1.4237996551451518e-01  4.8668545381051181e-01 1.1140989139891470e-01 1.4359441753985716e-01  4.8690564626295907e-01 1.1066110414076456e-01 1.4483868219049387e-01  4.8713453002932089e-01 1.0991001137757743e-01 1.4611886462637280e-01  4.8737025813264645e-01 1.0916431410624970e-01 1.4742382417519401e-01  4.8761446227224703e-01 1.0841861070803124e-01 1.4876290822129426e-01  4.8786665466215234e-01 1.0767596033904805e-01 1.5013275112170632e-01  4.8812664990082372e-01 1.0693726301169161e-01 1.5153231448491780e-01  4.8839414363507733e-01 1.0620425766710508e-01 1.5295961324724391e-01  4.8866910296025168e-01 1.0547711010972328e-01 1.5441460753252517e-01  4.8895153971119892e-01 1.0475647924608378e-01 1.5589711854521737e-01  4.8924149219476737e-01 1.0404252363295625e-01 1.5740736080879000e-01  4.8953842490970084e-01 1.0333680000476822e-01 1.5894255751624350e-01  4.8984173651488527e-01 1.0264057590969948e-01 1.6049982350016637e-01  4.9015193012004393e-01 1.0195376807893076e-01 1.6208131301769341e-01  4.9046878938005939e-01 1.0127604673531555e-01 1.6368644974466912e-01  4.9079081697047228e-01 1.0061066719789549e-01 1.6530774797901862e-01  4.9111876914706526e-01 9.9956084574205670e-02 1.6694911231420115e-01  4.9145190228833030e-01 9.9313586890901168e-02 1.6860702099083105e-01  4.9178975655477425e-01 9.8683692230487938e-02 1.7027948188789349e-01  4.9213183388748261e-01 9.8067183498106225e-02 1.7196414690752751e-01  4.9247739530528223e-01 9.7464600928994741e-02 1.7365791691802329e-01  4.9282647474299640e-01 9.6875874211935428e-02 1.7536094011982148e-01  4.9317798552770697e-01 9.6302002378589574e-02 1.7706845237137681e-01  4.9353147113305390e-01 9.5743202962340970e-02 1.7877851759262720e-01  4.9388685537130600e-01 9.5199239028576702e-02 1.8049094886072833e-01  4.9424283181037676e-01 9.4671079156516250e-02 1.8220001395101193e-01  4.9459729486637394e-01 9.4161162583941804e-02 1.8389592616886982e-01  4.9495238989740592e-01 9.3665784923666215e-02 1.8558923822090029e-01  4.9530676205725049e-01 9.3185925889069432e-02 1.8727388724097047e-01  4.9565660061974537e-01 9.2725936550808297e-02 1.8893216856729267e-01  4.9600502989839484e-01 9.2280818272846218e-02 1.9057929311779592e-01  4.9635181835860492e-01 9.1850077899795310e-02 1.9221436137233991e-01  4.9669031245528333e-01 9.1440977813753849e-02 1.9380664104113748e-01  4.9702407004988758e-01 9.1048670857875436e-02 1.9537277200202038e-01  4.9735106247926525e-01 9.0673766214396864e-02 1.9690426965259289e-01  4.9767202813151035e-01 9.0315171212133435e-02 1.9840439046601585e-01  4.9798450181045445e-01 8.9974450843723686e-02 1.9986220725365622e-01  4.9828834746130729e-01 8.9650946393077580e-02 2.0127729971506994e-01  4.9858222093107252e-01 8.9345085613231845e-02 2.0264379069794061e-01  4.9886500203207534e-01 8.9057117832694502e-02 2.0395677314922706e-01  4.9913740052013578e-01 8.8785530169322391e-02 2.0521976527984123e-01  4.9939859459959690e-01 8.8530209590482453e-02 2.0642933625495796e-01  4.9964672153780210e-01 8.8292168054688938e-02 2.0757705793540687e-01  4.9988004123999669e-01 8.8072382182481798e-02 2.0865509460010587e-01  5.0009813086887633e-01 8.7870335087000720e-02 2.0966178465778051e-01  5.0030291616523304e-01 8.7683565659669171e-02 2.1060620109199879e-01  5.0049112807767648e-01 8.7514348401035363e-02 2.1147353305070962e-01  5.0066397665261830e-01 8.7361006208697620e-02 2.1226945429730892e-01  5.0095142079728472e-01 8.7110390456295622e-02 2.1359182669495869e-01  5.0108834841797267e-01 8.6992311771746336e-02 2.1422150626776254e-01  5.0118295182456518e-01 8.6911932415950258e-02 2.1465615672556590e-01  5.0126818446199772e-01 8.6839824115490599e-02 2.1504766352993920e-01  5.0133642104428178e-01 8.6782366853018475e-02 2.1536104202383910e-01  5.0138421083325202e-01 8.6742336225625979e-02 2.1558044722246195e-01  5.0141259792065762e-01 8.6718605109369101e-02 2.1571077102644182e-01  5.0142371487149096e-01 8.6709325911592125e-02 2.1576180206105250e-01  5.0141554590676696e-01 8.6716145901351738e-02 2.1572430366287815e-01  5.0139746703568699e-01 8.6731216444490250e-02 2.1564131812871246e-01  5.0134767542717884e-01 8.6772927576573761e-02 2.1541271199201370e-01  5.0128369874700551e-01 8.6826731141870547e-02 2.1511892499543314e-01  5.0120210015044497e-01 8.6895735553164044e-02 2.1474408866244257e-01  5.0110666726383879e-01 8.6976887146602427e-02 2.1430561553596897e-01  5.0099216394736545e-01 8.7075036452219978e-02 2.1377930005557735e-01  5.0085738882417385e-01 8.7191638572605798e-02 2.1315949596256953e-01  5.0070845804197461e-01 8.7321827712659950e-02 2.1247422070356325e-01  5.0054430322089638e-01 8.7466943081100701e-02 2.1171846067590527e-01  5.0036553216448321e-01 8.7626974608590327e-02 2.1089485169311328e-01  5.0017213825944584e-01 8.7802471353539330e-02 2.1000320115932392e-01  4.9996327989689815e-01 8.7994900928829112e-02 2.0903941423100694e-01  4.9974056801457767e-01 8.8203343634499581e-02 2.0801077014792399e-01  4.9950658012767774e-01 8.8426048631436147e-02 2.0692898843639790e-01  4.9926137531910320e-01 8.8663649537249617e-02 2.0579410145861268e-01  4.9900479888350746e-01 8.8916965291423664e-02 2.0460519849342737e-01  4.9873777743318259e-01 8.9185844696609839e-02 2.0336631770483748e-01  4.9846092342485326e-01 8.9470394434609940e-02 2.0208007832776759e-01  4.9817530591170972e-01 8.9770308173124896e-02 2.0075116640848964e-01  4.9788142583486289e-01 9.0085811396268797e-02 1.9938166796566856e-01  4.9758033370616767e-01 9.0416553260815505e-02 1.9797619865858210e-01  4.9727275802191884e-01 9.0762488952349202e-02 1.9653789605446567e-01  4.9696018793246827e-01 9.1122726006888477e-02 1.9507340558404437e-01  4.9664308602814883e-01 9.1497304737156421e-02 1.9358473728920778e-01  4.9632135879298095e-01 9.1887241918263127e-02 1.9207101828411602e-01  4.9599548212811118e-01 9.2292558051284945e-02 1.9053432521080144e-01  4.9566691717721995e-01 9.2712302677308830e-02 1.8898114516065043e-01  4.9533661815445240e-01 9.3145838681064921e-02 1.8741575677059744e-01  4.9500538834489771e-01 9.3592760086520704e-02 1.8584166668593866e-01  4.9467366041465366e-01 9.4052984162107139e-02 1.8426073260282327e-01  4.9434241291978803e-01 9.4525819583518897e-02 1.8267724331159255e-01  4.9400965878947795e-01 9.5014776603566553e-02 1.8108144703199960e-01  4.9367906571830522e-01 9.5514710699769939e-02 1.7949074997857647e-01  4.9335131342849720e-01 9.6025410489507274e-02 1.7790798577508635e-01  4.9302463799378665e-01 9.6549539662749317e-02 1.7632471860466026e-01  4.9270054542000441e-01 9.7085524750222099e-02 1.7474771054733429e-01  4.9237937470472670e-01 9.7632966977145047e-02 1.7317854638764557e-01  4.9206306948791823e-01 9.8188685857215338e-02 1.7162655754266704e-01  4.9174947038185057e-01 9.8757019508120922e-02 1.7008085670830442e-01  4.9144053670154170e-01 9.9334701705246373e-02 1.6855081379160117e-01  4.9113652242871741e-01 9.9920297766207575e-02 1.6703824601862882e-01  4.9083765541859881e-01 1.0051529176321335e-01 1.6554299583566745e-01  4.9054320153304792e-01 1.0111937141175424e-01 1.6406243383084737e-01  4.9025473871814484e-01 1.0173048725521876e-01 1.6260363827294746e-01  4.8997209567108074e-01 1.0234835100489151e-01 1.6116607096978755e-01  4.8969533088166906e-01 1.0297292272869663e-01 1.5974983944164187e-01  4.8942499573177067e-01 1.0360247181226874e-01 1.5835793961293490e-01  4.8890246741999083e-01 1.0487890596704044e-01 1.5564085827852633e-01  4.8865127812799047e-01 1.0552239053220855e-01 1.5432121332861065e-01  4.8840629489559811e-01 1.0617052209656562e-01 1.5302470980928179e-01  4.8816811218992340e-01 1.0682085515773929e-01 1.5175490423449026e-01  4.8793668948816432e-01 1.0747323894252798e-01 1.5051156176026814e-01  4.8771188144995414e-01 1.0812737047347110e-01 1.4929418742993616e-01  4.8749383463508039e-01 1.0878234041749109e-01 1.4810370850796151e-01  4.8728250554511854e-01 1.0943747290253905e-01 1.4694021897209211e-01  4.8707786350775678e-01 1.1009228210512792e-01 1.4580373814860997e-01  4.8687986190143728e-01 1.1074602072883993e-01 1.4469439323307570e-01  4.8668860782092299e-01 1.1139787339106688e-01 1.4361290236377935e-01  4.8650414203162401e-01 1.1204619029174832e-01 1.4256023298678797e-01  4.8632583196084411e-01 1.1269288968008401e-01 1.4153281547785193e-01  4.8615365873624955e-01 1.1333693890791480e-01 1.4053104313088316e-01  4.8598850559602985e-01 1.1397391887522344e-01 1.3956056656904833e-01  4.8582831679367727e-01 1.1461126227298780e-01 1.3860948111270102e-01  4.8567420162634334e-01 1.1524340711934537e-01 1.3768490810023495e-01  4.8552722688226574e-01 1.1586453239503663e-01 1.3679397024725562e-01  4.8538565633833969e-01 1.1648170543488544e-01 1.3592614785937190e-01  4.8524961198187072e-01 1.1709202191486269e-01 1.3508345520519752e-01  4.8511904583095422e-01 1.1769578943445060e-01 1.3426544009623959e-01  4.8499392952238579e-01 1.1829155055771369e-01 1.3347273227112230e-01  4.8487382351555913e-01 1.1888023702757919e-01 1.3270311277851957e-01  4.8475863596511920e-01 1.1946154735009341e-01 1.3195633833584799e-01  4.8464891636480145e-01 1.2003121342816980e-01 1.3123672717777718e-01  4.8454385250427284e-01 1.2059246605428713e-01 1.3053943541729859e-01  4.8444292740565142e-01 1.2114676688858204e-01 1.2986168270709145e-01  4.8434735301098381e-01 1.2168646660213921e-01 1.2921211259446175e-01  4.8425548509140914e-01 1.2221975735700630e-01 1.2858008935440302e-01  4.8416783561847287e-01 1.2274230413607495e-01 1.2796984932522926e-01  4.8408439878467835e-01 1.2325324276574995e-01 1.2738179538103872e-01  4.8400481627290792e-01 1.2375354240223038e-01 1.2681403952593800e-01  4.8392899712098686e-01 1.2424268096986249e-01 1.2626649683825875e-01  4.8385658407635845e-01 1.2472196879141172e-01 1.2573710041784303e-01  4.8378720041323586e-01 1.2519293420058178e-01 1.2522359817116321e-01  4.8372192245166812e-01 1.2564707353993954e-01 1.2473458401762949e-01  4.8366000940736381e-01 1.2608844349762816e-01 1.2426508190444717e-01  4.8360002515272044e-01 1.2652638333204125e-01 1.2380467545270311e-01  4.8354354989184434e-01 1.2694852139076648e-01 1.2336593086002276e-01  4.8349028439748787e-01 1.2735604364895883e-01 1.2294707893490475e-01  4.8343933980906845e-01 1.2775462287804604e-01 1.2254173222850441e-01  4.8339107026914546e-01 1.2814060645425235e-01 1.2215317750717056e-01  4.8334495057570759e-01 1.2851763863537616e-01 1.2177747649797896e-01  4.8330179772673681e-01 1.2887770676137009e-01 1.2142200749787856e-01  4.8326046664435662e-01 1.2922996774405898e-01 1.2107754003867252e-01  4.8322149188988089e-01 1.2956876864391625e-01 1.2074912394328886e-01  4.8318440794855910e-01 1.2989746478210973e-01 1.2043320857621378e-01  4.8314901501230745e-01 1.3021723286486941e-01 1.2012840827039427e-01  4.8311612530561709e-01 1.3052021016503476e-01 1.1984199605832950e-01  4.8308516213881797e-01 1.3081044112500351e-01 1.1956964431730144e-01  4.8305535893497825e-01 1.3109464514828215e-01 1.1930485797531595e-01  4.8302762374859703e-01 1.3136369886535770e-01 1.1905595517628059e-01  4.8300174849381794e-01 1.3161889450767586e-01 1.1882146157009710e-01  4.8297726365231158e-01 1.3186405827177067e-01 1.1859756213573315e-01  4.8295420002213796e-01 1.3209846960665392e-01 1.1838475949623628e-01  4.8293290487806823e-01 1.3231803718506083e-01 1.1818656530355949e-01  4.8337445543810026e-01 1.2827582771779172e-01 1.2201815725695314e-01  4.9356056981363500e-01 9.5697749962633749e-02 1.7891910100199832e-01  4.8297869579583130e-01 1.3185018259296918e-01 1.1861040837795968e-01  4.8929406128837538e-01 1.0391497788691183e-01 1.5768037322115211e-01  4.8292961726377442e-01 1.3235251869690534e-01 1.1815564993669907e-01  4.9748638069206952e-01 9.0521681581739288e-02 1.9753696462291920e-01  4.8360121006881079e-01 1.2651923897451087e-01 1.2381295947623003e-01  4.8513018819552506e-01 1.1764376380664399e-01 1.3433547165206239e-01  5.0084934407400916e-01 8.7198662112677766e-02 2.1312244951911199e-01  4.9264906142612502e-01 9.7172915577565036e-02 1.7449624838958963e-01  4.8390141188003355e-01 1.2442413745489159e-01 1.2606542501983159e-01  4.9709417382465487e-01 9.0967364329516326e-02 1.9570146327182383e-01  4.9444767045291738e-01 9.4374661689411013e-02 1.8318066919095582e-01  4.8439903946201185e-01 1.2139298857618244e-01 1.2956424062886784e-01  4.9031467836251902e-01 1.0160291577459890e-01 1.6290691296032028e-01  4.8284764348767273e-01 1.3322979794141260e-01 1.1737518312537586e-01  4.9911747257452521e-01 8.8805218182179707e-02 2.0512742581732085e-01  5.0059309882929626e-01 8.7423718328826616e-02 2.1194311675288230e-01  4.8278361330991948e-01 1.3395132120796938e-01 1.1674569177260079e-01  4.8518250649707961e-01 1.1740050012802357e-01 1.3466396658968693e-01  4.8854112266753769e-01 1.0581259155921978e-01 1.5373873216930142e-01  4.8624605130033255e-01 1.1298855576179370e-01 1.4106997790308340e-01  4.8277894181862280e-01 1.3400552515435005e-01 1.1669890832157848e-01  5.0126799456299576e-01 8.6840016526398348e-02 2.1504676199285863e-01  4.8705046463603840e-01 1.1018293700208973e-01 1.4565007840237687e-01  4.8718658514218294e-01 1.0974211560217814e-01 1.4640861025704843e-01  4.8280502151409405e-01 1.3370635490951449e-01 1.1695820240452055e-01  4.8313932715941554e-01 1.3030612850550741e-01 1.2004423328191115e-01  4.9159087808548779e-01 9.9051661936572527e-02 1.6929617908433056e-01  4.9923581241223791e-01 8.8688903514429207e-02 2.0567559771503405e-01  4.8412003312526142e-01 1.2303497505872067e-01 1.2763296293081966e-01  4.8318689729234909e-01 1.2987647320286169e-01 1.2045383546801780e-01  5.0136780748189802e-01 8.6756148260273128e-02 2.1550510042772911e-01  4.8618955838634370e-01 1.1320251521691471e-01 1.4073994572028628e-01  4.8805641583230785e-01 1.0713334473483607e-01 1.5115590338703935e-01  4.8284656055407638e-01 1.3324166619485656e-01 1.1736471890017029e-01  4.9580459185167070e-01 9.2535766708162867e-02 1.8963209033161799e-01  4.9515662142754263e-01 9.3387320185354297e-02 1.8656082924247386e-01  4.8302106996761984e-01 1.3142833463511713e-01 1.1899656318308485e-01  4.8358062533470314e-01 1.2667019349771841e-01 1.2365460499090145e-01  4.9036788024440892e-01 1.0148858512856232e-01 1.6317673521735376e-01  5.0014895392927394e-01 8.7823842270501509e-02 2.0989617976430064e-01  4.8456108113712915e-01 1.2050142103573262e-01 1.3065324022349462e-01  4.8281320626920810e-01 1.3361381531423819e-01 1.1703883909933085e-01  4.8383923648575766e-01 1.2484025184424105e-01 1.2560842592388949e-01  5.0120069625310137e-01 8.6897024730955258e-02 2.1473759329261563e-01  4.9840384592779563e-01 8.9530020260036203e-02 2.0181455820502628e-01  4.8562315282793339e-01 1.1545820390435271e-01 1.3737589747403886e-01  4.9163154987932922e-01 9.8976297792472398e-02 1.6949727227516065e-01  4.8324741588471065e-01 1.2934311403661281e-01 1.2096773398534688e-01  4.8307564870723851e-01 1.3090129971735132e-01 1.1948505167738291e-01  4.8470605476562151e-01 1.1973263161260557e-01 1.3161247198888795e-01  4.9981900097789739e-01 8.8129679340342854e-02 2.0837308554899459e-01  4.8559733774194275e-01 1.1556592946055624e-01 1.3722012745005441e-01  4.9253329387386047e-01 9.7368948701664182e-02 1.7393119931798970e-01  4.8334650749626973e-01 1.2850585730939051e-01 1.2178965392870733e-01  4.8413372863