<?xml version="1.0"?>
<VTKFile type="UnstructuredGrid"  version="0.1"  >
<UnstructuredGrid>
<Piece  NumberOfPoints="25605" NumberOfCells="50684">
<Points>
<DataArray  type="Float64"  NumberOfComponents="3"  format="ascii">500 250 0  0 250 0  250 500 0  250 0 0  252.9976310880008 499.9820277697183 0  255.994831180465 499.9281136629446 0  258.9911693467 499.8382654314166 0  261.9862147844171 499.7124959931758 0  264.9795368730259 499.550823430959 0  267.9707052380909 499.3532709896657 0  270.9592898147818 499.1198670729815 0  273.944860911003 498.850645239173 0  276.9269892620302 498.5456441969613 0  279.9052461102784 498.204907798141 0  282.879203246639 497.8284850332306 0  285.8484330760252 497.4164300243493 0  288.812508703066 496.9688020138868 0  291.7710039592635 496.4856653605544 0  294.7234934645729 495.9670895309458 0  297.6695527219374 495.4131490839284 0  300.6087581526373 494.8239236640241 0  303.5406871632312 494.1994979890193 0  306.4649182085955 493.5399618372653 0  309.3810308492501 492.8454100354388 0  312.2886058121011 492.1159424449053 0  315.1872250543244 491.3516639464432 0  318.0764718164482 490.552684426976 0  320.9559306911491 489.7191187614222 0  323.8251876776197 488.8510867975364 0  326.6838302398962 487.9487133391117 0  329.5314473625203 487.0121281293906 0  332.3676296259557 486.0414658270902 0  335.1919692490408 485.0368659922747 0  338.0040601519906 483.9984730650284 0  340.8034980252745 482.926436340691 0  343.5898803648273 481.8209099570125 0  346.3628065522297 480.6820528636277 0  349.1218779058009 479.5100288014175 0  351.866697726272 478.3050062840155 0  354.5968713702315 477.0671585667096 0  357.3120063039883 475.7966636224122 0  360.0117121560444 474.4937041177227 0  362.6956007624657 473.158467392091 0  365.3632862410136 471.7911454221605 0  368.0143850392318 470.39193479756 0  370.6485159774368 468.9610366993228 0  373.2653003309281 467.4986568563726 0  375.8643618621848 466.0050055277077 0  378.4453268904447 464.4802974634425 0  381.0078243277097 462.9247518841339 0  383.5514857466806 461.3385924407896 0  386.0759454147861 459.7220471945478 0  388.5808403686633 458.0753485704519 0  391.0658104727646 456.398733318938 0  393.5304984398443 454.6924425024281 0  395.9745499014433 452.9567214483695 0  398.3976134594079 451.1918197133078 0  400.7993407313268 449.3979910505549 0  403.1793863983767 447.5754933756127 0  405.5374082633365 445.7245887228382 0  407.8730672875487 443.8455432173283 0  410.1860276678057 441.9386270139729 0  412.4759568502628 440.0041142859584 0  414.7425255888164 438.0422831775295 0  416.9854079982472 436.0534157591817 0  419.2042816111551 434.0377979776246 0  421.3988273934515 431.9957196423856 0  423.5687298230711 429.9274743545459 0  425.7136769203488 427.833359477718 0  427.8333602660664 425.7136761224903 0  429.9274751166117 423.5687290330868 0  431.9957203865596 421.3988266032683 0  434.0377986976932 419.2042808279605 0  436.0534164531565 416.9854072250276 0  438.0422838486247 414.7425248228072 0  440.0041149354581 412.4759560907189 0  441.9386276454979 410.1860269110977 0  443.8455438341414 407.8730665301906 0  445.7245893245478 405.5374075061595 0  447.5754939498422 403.1793856577179 0  449.3979916037435 400.7993399998601 0  451.1918202566634 398.3976127227471 0  452.9567219786559 395.9745491641559 0  454.6924430171686 393.53049770576 0  456.3987338202434 391.0658097392857 0  458.0753490553683 388.5808396405746 0  459.7220476673142 386.0759446861523 0  461.3385928978555 383.5514850233965 0  462.924752323721 381.0078236132563 0  464.4802978831972 378.4453261895309 0  466.005005928237 375.8643611748071 0  467.4986572464557 373.2652996426359 0  468.9610370690891 370.64851530636 0  470.3919351512159 368.0143843787793 0  471.7911457549822 365.363285601149 0  473.1584677051019 362.6956001426453 0  474.4937044170927 360.0117115451396 0  475.7966639080153 357.3120057030471 0  477.0671588375024 354.5968707823731 0  478.3050065468899 351.8666971371142 0  479.5100290514928 349.1218773267684 0  480.68205310082 346.3628059844174 0  481.8209101826405 343.5898798059497 0  482.926436550004 340.8034974883511 0  483.9984732613996 338.0040596298491 0  485.0368661774559 335.1919687381426 0  486.0414660017697 332.3676291253755 0  487.0121282892932 329.5314468859938 0  487.9487134870012 326.6838297809975 0  488.8510869337421 323.825187236945 0  489.7191188882317 320.9559302627332 0  490.5526845449373 318.0764713996244 0  491.3516640573307 315.1872246437704 0  492.1159425458163 312.2886054198597 0  492.8454101279934 309.3810304707378 0  493.5399619220304 306.4649178429931 0  494.1994980644915 303.5406868190015 0  494.8239237308971 300.6087578291331 0  495.4131491423161 297.6695524213444 0  495.9670895813101 294.7234931875826 0  496.4856654030534 291.7710037084818 0  496.9688020494549 288.8125084767419 0  497.416430053242 285.8484328766153 0  497.8284850586459 282.8792030550702 0  498.2049078189591 279.9052459374942 0  498.5456442137286 276.9269891072627 0  498.850645253019 273.9448607671062 0  499.1198670835989 270.9592896885852 0  499.3532709967772 267.9707051394148 0  499.5508234355897 264.9795367958812 0  499.7124959959075 261.9862147275054 0  499.8382654331632 258.9911692981657 0  499.928113663985 255.99483113709 0  499.9820277699785 252.9976310663071 0  499.9820277697257 247.0023689126091 0  499.9281136630343 244.0051688232745 0  499.8382654314717 241.0088306548307 0  499.7124959931211 238.0137852144455 0  499.5508234310553 235.0204631285785 0  499.3532709900699 232.0292947675166 0  499.119867073792 229.0407101948513 0  498.8506452406773 226.0551391046306 0  498.5456441987692 223.0730107546571 0  498.2049078002218 220.0947539069917 0  497.8284850356648 217.120796771709 0  497.4164300267099 214.151566940267 0  496.968802017216 211.187491318118 0  496.4856653659872 208.2289960727951 0  495.9670895372035 205.2765065698432 0  495.4131490907147 202.330447313 0  494.8239236713522 199.3912418828135 0  494.1994979969027 196.4593128727251 0  493.5399618460726 193.5350818293917 0  492.8454100458835 190.6189691934644 0  492.1159424557956 187.7113942302294 0  491.3516639574156 184.8127749862999 0  490.5526844387521 181.923528225163 0  489.7191187738694 179.0440693509028 0  488.851086810667 176.1748123648628 0  487.948713352938 173.3161698030064 0  487.0121281439243 170.4685526807917 0  486.0414658415049 167.6323704153526 0  485.0368660060558 164.8080307889799 0  483.9984730779887 161.9959398824702 0  482.9264363544502 159.1965020100202 0  481.8209099702043 156.4101196678486 0  480.6820528745703 153.6371934739656 0  479.5100288124721 150.8781221197951 0  478.3050062927852 148.1333022933829 0  477.0671585723666 145.403128642049 0  475.796663627405 142.687993706517 0  474.4937041236649 139.9882878560814 0  473.1584673984938 137.3043992502131 0  471.7911454319914 134.6367137778867 0  470.3919348096422 131.9856149833316 0  468.9610367113798 129.3514840444451 0  467.49865687022 126.7346996935054 0  466.0050055427385 124.1356381636107 0  464.4802974781252 121.5546731340727 0  462.9247519005733 118.992175699009 0  461.3385924615702 116.4485142862037 0  459.722047215144 113.924054616957 0  458.0753485880027 111.4191596576888 0  456.3987333337139 108.9341895488548 0  454.692442514023 106.4695015766915 0  452.95672145825 104.0254501122942 0  451.1918197247282 101.6023865560754 0  449.3979910627008 99.20065928473332 0  447.5754933882043 96.82061361786421 0  445.7245887341124 94.46259175085058 0  443.8455432269008 92.12693272420489 0  441.9386270210269 89.81397234064673 0  440.0041142971544 87.52404316283014 0  438.0422831897421 85.25747442512349 0  436.0534157701649 83.01459201399018 0  434.0377979907771 80.79571840315057 0  431.9957196541004 78.60117261898753 0  429.9274743620823 76.43127018474144 0  427.8333594859367 74.28632308796901 0  425.7136761283247 72.16663973969838 0  423.5687290359737 70.07252488617331 0  421.3988265987173 68.00427960915448 0  419.2042808240311 65.962201298694 0  416.9854072196475 63.94658354201471 0  414.742524818212 61.95771614734943 0  412.4759560828471 59.99588505781063 0  410.1860269003736 58.06137234555209 0  407.8730665183855 56.15445615624427 0  405.5374074948106 54.27541066643354 0  403.1793856410161 52.424506037209 0  400.7993399855741 50.60200838545225 0  398.3976127114923 48.80817973503514 0  395.9745491514178 47.04327801218227 0  393.5304976958927 45.30755697591243 0  391.0658097308475 43.60126617398947 0  388.5808396359472 41.92465094154986 0  386.0759446832285 40.27795233078868 0  383.5514850239504 38.66140710249451 0  381.007823619977 37.07524768041412 0  378.4453262000283 35.51970212308933 0  375.8643611921311 33.99499408185753 0  373.2652996617874 32.50134276439832 0  370.6485153256615 31.03896294154612 0  368.0143843882092 29.60806485383361 0  365.3632855907917 28.2088542396306 0  362.6956001322776 26.84153228966238 0  360.0117115354126 25.50629557814059 0  357.3120057003284 24.20333609069269 0  354.596870775138 22.93284115916481 0  351.8666971306181 21.69499345021163 0  349.121877320111 20.48997094563194 0  346.3628059771881 19.31794689616012 0  343.5898798100648 18.17908981902079 0  340.8034974914794 17.07356345121562 0  338.0040596332272 16.00152673987083 0  335.1919687416658 14.9631338238211 0  332.3676291322006 13.95853400061199 0  329.5314468917599 12.98787171264172 0  326.6838297822748 12.05128651341042 0  323.8251872378164 11.14891306652726 0  320.9559302656854 10.28088111264219 0  318.076471404611 9.447315456473888 0  315.1872246503818 8.648335944454999 0  312.2886054290304 7.88405745654299 0  309.3810304838133 7.154589875203868 0  306.4649178487239 6.460038079298243 0  303.5406868253978 5.800501936910877 0  300.6087578339258 5.176076270093546 0  297.669552426172 4.586850858621602 0  294.7234931936628 4.0329104197954 0  291.7710037123022 3.514334597594029 0  288.8125084726372 3.031197949900047 0  285.8484328697872 2.58356994576863 0  282.8792030484304 2.171514940473202 0  279.905245932244 1.795092180408318 0  276.9269891008954 1.454
[...]
<PointData  Vectors="f_12"> 
<DataArray  type="Float64"  Name="f_12"  NumberOfComponents="3" format="ascii">4.9429625213321104e-01 3.4339626239697818e-01 3.6884242625928731e-01  5.1664062736993832e-01 4.6368968290495616e-01 3.9794879367247293e-01  4.8884218113835926e-01 2.9628668456984186e-01 3.6867800186223476e-01  4.8750515430869240e-01 1.8285286567743197e-01 4.2630834791439559e-01  4.8880844445873983e-01 2.9594064794009595e-01 3.6870385496530350e-01  4.8877485210206933e-01 2.9559508226307485e-01 3.6873012681028761e-01  4.8874261152107085e-01 2.9526250195686410e-01 3.6875580894772886e-01  4.8871173337521262e-01 2.9494307550893584e-01 3.6878086788136466e-01  4.8868181800215549e-01 2.9463278343270288e-01 3.6880556965873773e-01  4.8865259541340983e-01 2.9432885517785845e-01 3.6883012949661126e-01  4.8862443280805257e-01 2.9403520546516770e-01 3.6885418117335467e-01  4.8859709538119261e-01 2.9374942414255678e-01 3.6887791226129496e-01  4.8857064949651047e-01 2.9347227932849285e-01 3.6890122423853844e-01  4.8854515615437383e-01 2.9320448797438453e-01 3.6892402126457641e-01  4.8852041212422359e-01 2.9294393150010350e-01 3.6894648385748707e-01  4.8849708382660356e-01 2.9269774883156396e-01 3.6896793184859028e-01  4.8847447825353235e-01 2.9245866628413641e-01 3.6898899173476918e-01  4.8845246370514406e-01 2.9222531968852605e-01 3.6900977599487905e-01  4.8843158833900657e-01 2.9200359632254724e-01 3.6902971712729199e-01  4.8841164724929237e-01 2.9179139632669060e-01 3.6904897257980590e-01  4.8839257231267058e-01 2.9158801116213934e-01 3.6906760470752037e-01  4.8837408753493011e-01 2.9139052860288933e-01 3.6908586985871683e-01  4.8835620192035906e-01 2.9119909281087525e-01 3.6910373221698178e-01  4.8833989427089614e-01 2.9102428007695769e-01 3.6912015017016425e-01  4.8832449336241940e-01 2.9085889887315020e-01 3.6913580978461030e-01  4.8830934443218815e-01 2.9069594549677830e-01 3.6915136729999365e-01  4.8829503362435872e-01 2.9054177243969187e-01 3.6916619016798957e-01  4.8828192480082949e-01 2.9040033501828849e-01 3.6917987926990964e-01  4.8826958628949468e-01 2.9026702784049102e-01 3.6919286210105812e-01  4.8825798703195405e-01 2.9014153402010473e-01 3.6920516264036723e-01  4.8824719543470746e-01 2.9002460390602242e-01 3.6921670414020125e-01  4.8823734475519237e-01 2.8991773772644408e-01 3.6922731068602793e-01  4.8822807475262470e-01 2.8981704218997223e-01 3.6923736675688679e-01  4.8821955011237533e-01 2.8972432668128617e-01 3.6924668119584503e-01  4.8821236472960255e-01 2.8964608252126917e-01 3.6925458407786255e-01  4.8820593717823718e-01 2.8957599095288689e-01 3.6926171373254968e-01  4.8819994646192366e-01 2.8951057630557298e-01 3.6926841443517794e-01  4.8819468866711324e-01 2.8945307891798550e-01 3.6927434973699164e-01  4.8819031284939007e-01 2.8940513976264276e-01 3.6927934488279029e-01  4.8818707354057522e-01 2.8936954484082644e-01 3.6928311158608329e-01  4.8818358935528960e-01 2.8933121219939506e-01 3.6928720118893416e-01  4.8818282199354684e-01 2.8932252160509592e-01 3.6928826295483685e-01  4.8818163408306675e-01 2.8930918296441049e-01 3.6928984116825864e-01  4.8818147000198708e-01 2.8930699156452189e-01 3.6929029890971832e-01  4.8818210653203020e-01 2.8931350369836112e-01 3.6928989122182604e-01  4.8818351516906816e-01 2.8932840514222519e-01 3.6928865180290826e-01  4.8818583746513761e-01 2.8935324004983592e-01 3.6928642218402491e-01  4.8818893614218933e-01 2.8938650016574152e-01 3.6928336181674382e-01  4.8819285106762211e-01 2.8942861317019708e-01 3.6927942996839974e-01  4.8819777888161764e-01 2.8948171616866059e-01 3.6927441057976279e-01  4.8820333794786303e-01 2.8954162503904990e-01 3.6926874238200252e-01  4.8820993009772423e-01 2.8961271260069926e-01 3.6926198085241024e-01  4.8821735048406456e-01 2.8969272346416070e-01 3.6925436637039127e-01  4.8822580078877414e-01 2.8978383044811878e-01 3.6924568779188438e-01  4.8823477548418703e-01 2.8988051168579515e-01 3.6923651432173249e-01  4.8824454758196700e-01 2.8998571376368359e-01 3.6922655724144482e-01  4.8825586092763357e-01 2.9010749466950436e-01 3.6921501335907492e-01  4.8826771615371040e-01 2.9023495768937962e-01 3.6920299883338870e-01  4.8827988410342615e-01 2.9036560871433065e-01 3.6919076619789803e-01  4.8829318279287415e-01 2.9050826567404303e-01 3.6917745688736725e-01  4.8830800827733428e-01 2.9066716698372558e-01 3.6916267140402231e-01  4.8832364798418743e-01 2.9083455790603530e-01 3.6914719589759926e-01  4.8834015539996894e-01 2.9101097723250485e-01 3.6913099423958734e-01  4.8835749590017163e-01 2.9119601546025398e-01 3.6911412116191600e-01  4.8837608868765781e-01 2.9139410813390043e-01 3.6909618059430221e-01  4.8839506388910470e-01 2.9159590757738435e-01 3.6907807044947422e-01  4.8841600315186506e-01 2.9181824386564725e-01 3.6905824540618520e-01  4.8843729886872128e-01 2.9204388553274413e-01 3.6903834105464550e-01  4.8845944400977326e-01 2.9227806922600796e-01 3.6901787976091793e-01  4.8848300893704877e-01 2.9252676212082079e-01 3.6899635892691407e-01  4.8850826071115883e-01 2.9279271252300421e-01 3.6897356486025668e-01  4.8853408252562686e-01 2.9306401784627967e-01 3.6895059817941711e-01  4.8856044113324582e-01 2.9334027163397614e-01 3.6892752040629651e-01  4.8858832699423238e-01 2.9363185214931270e-01 3.6890344529153052e-01  4.8861788640014975e-01 2.9394019119471781e-01 3.6887829450193665e-01  4.8864834692468712e-01 2.9425707342762364e-01 3.6885282072585146e-01  4.8867994247873481e-01 2.9458485907411819e-01 3.6882686245633967e-01  4.8871276937709146e-01 2.9492444851686006e-01 3.6880039191271236e-01  4.8874701785394220e-01 2.9527776291464414e-01 3.6877326921683018e-01  4.8878235406025683e-01 2.9564118653535354e-01 3.6874585860480602e-01  4.8881872552008199e-01 2.9601408669917384e-01 3.6871825053657209e-01  4.8885688011432232e-01 2.9640406925987972e-01 3.6868989028085258e-01  4.8889667475637255e-01 2.9680952760029850e-01 3.6866096181698926e-01  4.8893757022752032e-01 2.9722475891112904e-01 3.6863197584262114e-01  4.8897997953621902e-01 2.9765387584605563e-01 3.6860267427367083e-01  4.8902399612743069e-01 2.9809776192535298e-01 3.6857301020071093e-01  4.8906899125693210e-01 2.9854983661580020e-01 3.6854355146849110e-01  4.8911593066203091e-01 2.9901966758233794e-01 3.6851372116046682e-01  4.8916489550184977e-01 2.9950798793404121e-01 3.6848349514823658e-01  4.8921515467260568e-01 3.0000723525594664e-01 3.6845347868561895e-01  4.8926710161053416e-01 3.0052120415233941e-01 3.6842348495273497e-01  4.8932067631971327e-01 3.0104912327104522e-01 3.6839364138340058e-01  4.8937589621342131e-01 3.0159098162043796e-01 3.6836403185906713e-01  4.8943364412168372e-01 3.0215531586944849e-01 3.6833421440404862e-01  4.8949270642835191e-01 3.0272993431522893e-01 3.6830502466052351e-01  4.8955384744765779e-01 3.0332215436288046e-01 3.6827611387926978e-01  4.8961696636986318e-01 3.0393083963414114e-01 3.6824761039132914e-01  4.8968177783626493e-01 3.0455291159924175e-01 3.6821981773127888e-01  4.8974926135225727e-01 3.0519767003373133e-01 3.6819234100763948e-01  4.8981874448159274e-01 3.0585833511651278e-01 3.6816564185492057e-01  4.8989004903283850e-01 3.0653302168385305e-01 3.6813988634927247e-01  4.8996436711150188e-01 3.0723272095235565e-01 3.6811476050102643e-01  4.9004062369759355e-01 3.0794705827922153e-01 3.6809077502877402e-01  4.9011905850439413e-01 3.0867800447014954e-01 3.6806797689504778e-01  4.9020050302325824e-01 3.0943312189898936e-01 3.6804618855821569e-01  4.9028438670296920e-01 3.1020661224722573e-01 3.6802584076412537e-01  4.9037088003199936e-01 3.1099985129952235e-01 3.6800697004534016e-01  4.9045998370342109e-01 3.1181256352832443e-01 3.6798970077081700e-01  4.9055195704272725e-01 3.1264671138310268e-01 3.6797418560720035e-01  4.9064701413716511e-01 3.1350398464503537e-01 3.6796048193708752e-01  4.9074453665048023e-01 3.1437833383532499e-01 3.6794893646082077e-01  4.9084579564514869e-01 3.1528087830126850e-01 3.6793948118239428e-01  4.9095054373599656e-01 3.1620889179808365e-01 3.6793240954590628e-01  4.9105793977788303e-01 3.1715464544653910e-01 3.6792788663523290e-01  4.9116849960469494e-01 3.1812215526944077e-01 3.6792615811763379e-01  4.9128290587768952e-01 3.1911712500746725e-01 3.6792730370228560e-01  4.9140085056077187e-01 3.2013638429741204e-01 3.6793153621898178e-01  4.9152222047636673e-01 3.2117837232992447e-01 3.6793914690219304e-01  4.9164733942991728e-01 3.2224554071374384e-01 3.6795028820145304e-01  4.9177783474219949e-01 3.2335089659005545e-01 3.6796548674105961e-01  4.9191206629988943e-01 3.2448047762324239e-01 3.6798455963757504e-01  4.9204953153574127e-01 3.2562927311774964e-01 3.6800778335769024e-01  4.9219097241183363e-01 3.2680286549529663e-01 3.6803561672121521e-01  4.9233824624383954e-01 3.2801624157698467e-01 3.6806851575757810e-01  4.9248988583933112e-01 3.2925682300846093e-01 3.6810636571477517e-01  4.9264596128246041e-01 3.3052422525395042e-01 3.6814963437225662e-01  4.9280756503483286e-01 3.3182654654737170e-01 3.6819899137030693e-01  4.9297369994481194e-01 3.3315548820513113e-01 3.6825414582814614e-01  4.9314517960254578e-01 3.3451677484550862e-01 3.6831569894521499e-01  4.9332244173940676e-01 3.3591293162057811e-01 3.6838425498858479e-01  4.9350520852993673e-01 3.3734116362477651e-01 3.6845989862275103e-01  4.9369368967605276e-01 3.3880225742705999e-01 3.6854308723441953e-01  4.9388810704983477e-01 3.4029714193004612e-01 3.6863421959220677e-01  4.9408888371507892e-01 3.4182821147813214e-01 3.6873382837642316e-01  4.9451032190377209e-01 3.4500122060329286e-01 3.6896040219033582e-01  4.9473113109357819e-01 3.4664240546462222e-01 3.6908815870993111e-01  4.9495929847802189e-01 3.4832344948548816e-01 3.6922637060126290e-01  4.9519455581792621e-01 3.5004120635673758e-01 3.6937537595777692e-01  4.9543741539569469e-01 3.5179833935708071e-01 3.6953588074678306e-01  4.9568819977485457e-01 3.5359622922989797e-01 3.6970838572296127e-01  4.9594671834337567e-01 3.5543213124054335e-01 3.6989332640297429e-01  4.9621327297932527e-01 3.5730711686854816e-01 3.7009127457886049e-01  4.9648908984502760e-01 3.5922857582545592e-01 3.7030348517055467e-01  4.9677292693926162e-01 3.6118600303713594e-01 3.7052995441078046e-01  4.9706831389147443e-01 3.6320303452672609e-01 3.7077322044897892e-01  4.9737174536982498e-01 3.6525391451904687e-01 3.7103140559628456e-01  4.9768462161992771e-01 3.6734641958492559e-01 3.7130618655909042e-01  4.9800824042368752e-01 3.6948784708969623e-01 3.7159911751992197e-01  4.9834218977442341e-01 3.7167416124873182e-01 3.7191011528255219e-01  4.9868594056562338e-01 3.7389924223164889e-01 3.7223986437036183e-01  4.9904233309682150e-01 3.7618043815532148e-01 3.7259118444729905e-01  4.9940982483278751e-01 3.7850573689560280e-01 3.7296326673689967e-01  4.9978924115054085e-01 3.8087862096800673e-01 3.7335734293338413e-01  5.0018000162459209e-01 3.8329329516151489e-01 3.7377364367543953e-01  5.0058357519469376e-01 3.8575671532787731e-01 3.7421429947066048e-01  5.0100188496771847e-01 3.8827855020674756e-01 3.7468189411157854e-01  5.0143313848693005e-01 3.9084482548085847e-01 3.7517561674449185e-01  5.0187798161398212e-01 3.9345767384405500e-01 3.7569644495279403e-01  5.0233669060767583e-01 3.9611576927378306e-01 3.7624570859993350e-01  5.0281059171249987e-01 3.9882481078203735e-01 3.7682525429425329e-01  5.0329884829594718e-01 4.0157609865164667e-01 3.7743560105225071e-01  5.0380471363725965e-01 4.0438563253018683e-01 3.7808117140526659e-01  5.0432618793401618e-01 4.0723939140033089e-01 3.7876013473541420e-01  5.0486257941399237e-01 4.1013060147849101e-01 3.7947226598977635e-01  5.0541733970129388e-01 4.1307372071855469e-01 3.8022364886781268e-01  5.0599052329089500e-01 4.1606653832392065e-01 3.8101450467754050e-01  5.0658108557984438e-01 4.1909834276661745e-01 3.8184532141698446e-01  5.0719074185539159e-01 4.2217512793539430e-01 3.8271885994714688e-01  5.0781938471196253e-01 4.2529253790116806e-01 3.8363580618692383e-01  5.0846746288261069e-01 4.2844835902831946e-01 3.8459803875176912e-01  5.0913493373167806e-01 4.3163720371610997e-01 3.8560727465005584e-01  5.0982529399619270e-01 4.3487224495508270e-01 3.8666888282918166e-01  5.1053506616348965e-01 4.3813161357771768e-01 3.8777959372731641e-01  5.1126726175698711e-01 4.4142473456209053e-01 3.8894479861291159e-01  5.1202278417672464e-01 4.4475042349891053e-01 3.9016715344295405e-01  5.1280039872880268e-01 4.4809683918015941e-01 3.9144674355153591e-01  5.1360081765268917e-01 4.5145992578556710e-01 3.9278690267971045e-01  5.1442539560439571e-01 4.5484527805092168e-01 3.9418793911776906e-01  5.1527351164827084e-01 4.5823805901945808e-01 3.9565419393523898e-01  5.1614834233985163e-01 4.6164699035648626e-01 3.9719105929270815e-01  5.1704648711350343e-01 4.6505219061619096e-01 3.9879453821468402e-01  5.1796982191098628e-01 4.6845332483164898e-01 4.0047022512684016e-01  5.1892015229557409e-01 4.7185082693654912e-01 4.0222256785322891e-01  5.1989604921555410e-01 4.7523090353283420e-01 4.0405184146438994e-01  5.2090019461379866e-01 4.7859623785525618e-01 4.0596436936460184e-01  5.2192868463394526e-01 4.8192472829472721e-01 4.0795621213800765e-01  5.2298219837229853e-01 4.8521096540035563e-01 4.1003047676792648e-01  5.2406513728141957e-01 4.8846291156003102e-01 4.1219705759551251e-01  5.2517327908929812e-01 4.9165813631268773e-01 4.1445102366855796e-01  5.2630731634746397e-01 4.9478809621334313e-01 4.1679806854558721e-01  5.2746844890240030e-01 4.9785012055218791e-01 4.1924176678455366e-01  5.2865431813078478e-01 5.0082873078189327e-01 4.2178067818257919e-01  5.2986377245678751e-01 5.0371245258347785e-01 4.2441582794935440e-01  5.3109574830182615e-01 5.0649029524381350e-01 4.2714845682825875e-01  5.3235355101100545e-01 5.0916159994896759e-01 4.2998897498562927e-01  5.3363349155208528e-01 5.1171012966058316e-01 4.3293290448213745e-01  5.3493200413247832e-01 5.1412048952590406e-01 4.3597600537772724e-01  5.3624653930203914e-01 5.1638079330484643e-01 4.3911632387734545e-01  5.3757748763272140e-01 5.1848738607626865e-01 4.4235704849795116e-01  5.3892208992770207e-01 5.2042696201057514e-01 4.4569708440421779e-01  5.4027700367336629e-01 5.2219130212457021e-01 4.4913073247119195e-01  5.4163761050474901e-01 5.2377035652819048e-01 4.5264987898349462e-01  5.4299906929542185e-01 5.2515313004885511e-01 4.5624706945666282e-01  5.4436346502356703e-01 5.2634242283724653e-01 4.5992889677054077e-01  5.4572240028660191e-01 5.2733024417410057e-01 4.6367592260869928e-01  5.4706562264018233e-01 5.2810965810995725e-01 4.6746216230798882e-01  5.4838993509622658e-01 5.2868563131932245e-01 4.7127806925055582e-01  5.4969305416889136e-01 5.2906259843461823e-01 4.7511745270090522e-01  5.5096555227124944e-01 5.2924587281404523e-01 4.7895176245986931e-01  5.5219796619007855e-01 5.2924462503608838e-01 4.8275000329501822e-01  5.5338494707948838e-01 5.2907516095023566e-01 4.8649006212700041e-01  5.5451695888318986e-01 5.2875427264380515e-01 4.9013696412784219e-01  5.5558518840759330e-01 5.2830399558449603e-01 4.9365476487212545e-01  5.5658084170347211e-01 5.2775244534778876e-01 4.9700335214299640e-01  5.5749200857077996e-01 5.2713163491204451e-01 5.0013093657573804e-01  5.5830943184234194e-01 5.2647373560968269e-01 5.0299363702507782e-01  5.5902246032753056e-01 5.2581404115742991e-01 5.0554125966934438e-01  5.5961954946429149e-01 5.2518873789183984e-01 5.0772009735187584e-01  5.6008779152775123e-01 5.2463418623293478e-01 5.0947211175714946e-01  5.6041373466582867e-01 5.2418299485398212e-01 5.1073990158414417e-01  5.6058169999043683e-01 5.2386348336371358e-01 5.1146200715152978e-01  5.6057404009451062e-01 5.2369565288311415e-01 5.1157617135490085e-01  5.6037210220363975e-01 5.2368609097510699e-01 5.1102516389909303e-01  5.5995399143689417e-01 5.2382614036255593e-01 5.0975081055055971e-01  5.5929396916176022e-01 5.2408739883758915e-01 5.0769412863724561e-01  5.5836520420705871e-01 5.2441350749055038e-01 5.0480724616916295e-01  5.5713527072205493e-01 5.2471810342859693e-01 5.0103899946239705e-01  5.5557343875457432e-01 5.2487334122807172e-01 4.9636060903564339e-01  5.5364799476392113e-01 5.2470745704458999e-01 4.9075537778820383e-01  5.5132874973753576e-01 5.2399706601948703e-01 4.8422568841507801e-01  5.4859681148875050e-01 5.2246858554399500e-01 4.7681593113319631e-01  5.4545894185592614e-01 5.1983844291441139e-01 4.6863191688399503e-01  5.4189440503896646e-01 5.1572695597449292e-01 4.5972119276050899e-01  5.3792294013678876e-01 5.0976973531249714e-01 4.5022495897795561e-01  5.3362764653835260e-01 5.0169297411471037e-01 4.4042277014831782e-01  5.2907333388647892e-01 4.9121770466432557e-01 4.3054658412597457e-01  5.2438357116619383e-01 4.7834576681520846e-01 4.2089864816591077e-01  5.1963369967658457e-01 4.6304538259312855e-01 4.1167400091494882e-01  5.1490704408783150e-01 4.4554981431206747e-01 4.0301738535873821e-01  5.1049497605477279e-01 4.2670064663624935e-01 3.9560739426628649e-01  5.0633110544864413e-01 4.0675320383157781e-01 3.8917376284304117e-01  5.0253395777566612e-01 3.8642627619256692e-01 3.8391479680384583e-01  4.9912972351337914e-01 3.6619840488076000e-01 3.7983269376974987e-01  4.9615467387731482e-01 3.4661042524825242e-01 3.7695815970833324e-01  4.9363472712749662e-01 3.2824788340813094e-01 3.7521884559085034e-01  4.9152492253221386e-01 3.1116949973806785e-01 3.7451351504746733e-01  4.8978970627253560e-01 2.9549045808475399e-01 3.7470080686585183e-01  4.8839701502453753e-01 2.8130702132996355e-01 3.7564539880858328e-01  4.8731043684856085e-01 2.6858588536352335e-01 3.7724669579588804e-01  4.8648439434343382e-01 2.5721749338324784e-01 3.7937287180671991e-01  4.8588223639024386e-01 2.4712155421448170e-01 3.8191056492237907e-01  4.8546689983319002e-01 2.3815647341826476e-01 3.8476507041453872e-01  4.8520690058478755e-01 2.3017265127771405e-01 3.8787103254377076e-01  4.8507929974955927e-01 2.2318015011821948e-01 3.9110801123412320e-01  4.8505758212528788e-01 2.1690815627828633e-01 3.9449518749048412e-01  4.8512465446743974e-01 2.1146774383347677e-01 3.9788287989230614e-01  4.8526040714432589e-01 2.0657558137317958e-01 4.0132456838389202e-01  4.8545072532080419e-01 2.0224151870314880e-01 4.0474065634727535e-01  4.8568468825732963e-01 1.9839185492410910e-01 4.0811519969268012e-01  4.8595066031828671e-01 1.9498589236873762e-01 4.1140971602997684e-01  4.8624357697563964e-01 1.9192871731407982e-01 4.1464991038264587e-01  4.8654462722922742e-01 1.8929030580793041e-01 4.1769812439192228e-01  4.8686198602346342e-01 1.8688862749133728e-01 4.2069801671164841e-01  4.8718250645297873e-01 1.8475404650322497e-01 4.2356367565966413e-01  4.8782152432870968e-01 1.8116604039703590e-01 4.2889877343193106e-01  4.8813356351208997e-01 1.7965771665313449e-01 4.3136514166841067e-01  4.8843529099069283e-01 1.7832211345687604e-01 4.3367969693752351e-01  4.8872272108492942e-01 1.7714587709804119e-01 4.3582924628574027e-01  4.8899474043763846e-01 1.7610877859202187e-01 4.3781954629415948e-01  4.8925842263778424e-01 1.7516502843054141e-01 4.3971299877325581e-01  4.8949656171018852e-01 1.7436579631172336e-01 4.4139207333550795e-01  4.8972431466672195e-01 1.7363908646627879e-01 4.4297579188496983e-01  4.8992645133016716e-01 1.7302420034846053e-01 4.4436368211325794e-01  4.9011036423762633e-01 1.7248879649634752e-01 4.4561220379205907e-01  4.9027398388801546e-01 1.7202947757172074e-01 4.4671285099546748e-01  4.9041507509989635e-01 1.7164674035483327e-01 4.4765400337796479e-01  4.9053444176064886e-01 1.7133143732487852e-01 4.4844516878485019e-01  4.9063280805828324e-01 1.7107733209873682e-01 4.4909368278424661e-01  4.9070960984402767e-01 1.7088209077269251e-01 4.4959808559135944e-01  4.9076150597386359e-01 1.7075196005888640e-01 4.4993782142232835e-01  4.9079226926383340e-01 1.7067534821642621e-01 4.5013886504937273e-01  4.9079834130749883e-01 1.7066017535914796e-01 4.5017853176317474e-01  4.9077886598283915e-01 1.7070838215853337e-01 4.5005132574294932e-01  4.9074284079406810e-01 1.7079704187854830e-01 4.4981630065727191e-01  4.9068380268