<?xml version="1.0"?>
<VTKFile type="UnstructuredGrid"  version="0.1"  >
<UnstructuredGrid>
<Piece  NumberOfPoints="25605" NumberOfCells="50684">
<Points>
<DataArray  type="Float64"  NumberOfComponents="3"  format="ascii">500 250 0  0 250 0  250 500 0  250 0 0  252.9976310880008 499.9820277697183 0  255.994831180465 499.9281136629446 0  258.9911693467 499.8382654314166 0  261.9862147844171 499.7124959931758 0  264.9795368730259 499.550823430959 0  267.9707052380909 499.3532709896657 0  270.9592898147818 499.1198670729815 0  273.944860911003 498.850645239173 0  276.9269892620302 498.5456441969613 0  279.9052461102784 498.204907798141 0  282.879203246639 497.8284850332306 0  285.8484330760252 497.4164300243493 0  288.812508703066 496.9688020138868 0  291.7710039592635 496.4856653605544 0  294.7234934645729 495.9670895309458 0  297.6695527219374 495.4131490839284 0  300.6087581526373 494.8239236640241 0  303.5406871632312 494.1994979890193 0  306.4649182085955 493.5399618372653 0  309.3810308492501 492.8454100354388 0  312.2886058121011 492.1159424449053 0  315.1872250543244 491.3516639464432 0  318.0764718164482 490.552684426976 0  320.9559306911491 489.7191187614222 0  323.8251876776197 488.8510867975364 0  326.6838302398962 487.9487133391117 0  329.5314473625203 487.0121281293906 0  332.3676296259557 486.0414658270902 0  335.1919692490408 485.0368659922747 0  338.0040601519906 483.9984730650284 0  340.8034980252745 482.926436340691 0  343.5898803648273 481.8209099570125 0  346.3628065522297 480.6820528636277 0  349.1218779058009 479.5100288014175 0  351.866697726272 478.3050062840155 0  354.5968713702315 477.0671585667096 0  357.3120063039883 475.7966636224122 0  360.0117121560444 474.4937041177227 0  362.6956007624657 473.158467392091 0  365.3632862410136 471.7911454221605 0  368.0143850392318 470.39193479756 0  370.6485159774368 468.9610366993228 0  373.2653003309281 467.4986568563726 0  375.8643618621848 466.0050055277077 0  378.4453268904447 464.4802974634425 0  381.0078243277097 462.9247518841339 0  383.5514857466806 461.3385924407896 0  386.0759454147861 459.7220471945478 0  388.5808403686633 458.0753485704519 0  391.0658104727646 456.398733318938 0  393.5304984398443 454.6924425024281 0  395.9745499014433 452.9567214483695 0  398.3976134594079 451.1918197133078 0  400.7993407313268 449.3979910505549 0  403.1793863983767 447.5754933756127 0  405.5374082633365 445.7245887228382 0  407.8730672875487 443.8455432173283 0  410.1860276678057 441.9386270139729 0  412.4759568502628 440.0041142859584 0  414.7425255888164 438.0422831775295 0  416.9854079982472 436.0534157591817 0  419.2042816111551 434.0377979776246 0  421.3988273934515 431.9957196423856 0  423.5687298230711 429.9274743545459 0  425.7136769203488 427.833359477718 0  427.8333602660664 425.7136761224903 0  429.9274751166117 423.5687290330868 0  431.9957203865596 421.3988266032683 0  434.0377986976932 419.2042808279605 0  436.0534164531565 416.9854072250276 0  438.0422838486247 414.7425248228072 0  440.0041149354581 412.4759560907189 0  441.9386276454979 410.1860269110977 0  443.8455438341414 407.8730665301906 0  445.7245893245478 405.5374075061595 0  447.5754939498422 403.1793856577179 0  449.3979916037435 400.7993399998601 0  451.1918202566634 398.3976127227471 0  452.9567219786559 395.9745491641559 0  454.6924430171686 393.53049770576 0  456.3987338202434 391.0658097392857 0  458.0753490553683 388.5808396405746 0  459.7220476673142 386.0759446861523 0  461.3385928978555 383.5514850233965 0  462.924752323721 381.0078236132563 0  464.4802978831972 378.4453261895309 0  466.005005928237 375.8643611748071 0  467.4986572464557 373.2652996426359 0  468.9610370690891 370.64851530636 0  470.3919351512159 368.0143843787793 0  471.7911457549822 365.363285601149 0  473.1584677051019 362.6956001426453 0  474.4937044170927 360.0117115451396 0  475.7966639080153 357.3120057030471 0  477.0671588375024 354.5968707823731 0  478.3050065468899 351.8666971371142 0  479.5100290514928 349.1218773267684 0  480.68205310082 346.3628059844174 0  481.8209101826405 343.5898798059497 0  482.926436550004 340.8034974883511 0  483.9984732613996 338.0040596298491 0  485.0368661774559 335.1919687381426 0  486.0414660017697 332.3676291253755 0  487.0121282892932 329.5314468859938 0  487.9487134870012 326.6838297809975 0  488.8510869337421 323.825187236945 0  489.7191188882317 320.9559302627332 0  490.5526845449373 318.0764713996244 0  491.3516640573307 315.1872246437704 0  492.1159425458163 312.2886054198597 0  492.8454101279934 309.3810304707378 0  493.5399619220304 306.4649178429931 0  494.1994980644915 303.5406868190015 0  494.8239237308971 300.6087578291331 0  495.4131491423161 297.6695524213444 0  495.9670895813101 294.7234931875826 0  496.4856654030534 291.7710037084818 0  496.9688020494549 288.8125084767419 0  497.416430053242 285.8484328766153 0  497.8284850586459 282.8792030550702 0  498.2049078189591 279.9052459374942 0  498.5456442137286 276.9269891072627 0  498.850645253019 273.9448607671062 0  499.1198670835989 270.9592896885852 0  499.3532709967772 267.9707051394148 0  499.5508234355897 264.9795367958812 0  499.7124959959075 261.9862147275054 0  499.8382654331632 258.9911692981657 0  499.928113663985 255.99483113709 0  499.9820277699785 252.9976310663071 0  499.9820277697257 247.0023689126091 0  499.9281136630343 244.0051688232745 0  499.8382654314717 241.0088306548307 0  499.7124959931211 238.0137852144455 0  499.5508234310553 235.0204631285785 0  499.3532709900699 232.0292947675166 0  499.119867073792 229.0407101948513 0  498.8506452406773 226.0551391046306 0  498.5456441987692 223.0730107546571 0  498.2049078002218 220.0947539069917 0  497.8284850356648 217.120796771709 0  497.4164300267099 214.151566940267 0  496.968802017216 211.187491318118 0  496.4856653659872 208.2289960727951 0  495.9670895372035 205.2765065698432 0  495.4131490907147 202.330447313 0  494.8239236713522 199.3912418828135 0  494.1994979969027 196.4593128727251 0  493.5399618460726 193.5350818293917 0  492.8454100458835 190.6189691934644 0  492.1159424557956 187.7113942302294 0  491.3516639574156 184.8127749862999 0  490.5526844387521 181.923528225163 0  489.7191187738694 179.0440693509028 0  488.851086810667 176.1748123648628 0  487.948713352938 173.3161698030064 0  487.0121281439243 170.4685526807917 0  486.0414658415049 167.6323704153526 0  485.0368660060558 164.8080307889799 0  483.9984730779887 161.9959398824702 0  482.9264363544502 159.1965020100202 0  481.8209099702043 156.4101196678486 0  480.6820528745703 153.6371934739656 0  479.5100288124721 150.8781221197951 0  478.3050062927852 148.1333022933829 0  477.0671585723666 145.403128642049 0  475.796663627405 142.687993706517 0  474.4937041236649 139.9882878560814 0  473.1584673984938 137.3043992502131 0  471.7911454319914 134.6367137778867 0  470.3919348096422 131.9856149833316 0  468.9610367113798 129.3514840444451 0  467.49865687022 126.7346996935054 0  466.0050055427385 124.1356381636107 0  464.4802974781252 121.5546731340727 0  462.9247519005733 118.992175699009 0  461.3385924615702 116.4485142862037 0  459.722047215144 113.924054616957 0  458.0753485880027 111.4191596576888 0  456.3987333337139 108.9341895488548 0  454.692442514023 106.4695015766915 0  452.95672145825 104.0254501122942 0  451.1918197247282 101.6023865560754 0  449.3979910627008 99.20065928473332 0  447.5754933882043 96.82061361786421 0  445.7245887341124 94.46259175085058 0  443.8455432269008 92.12693272420489 0  441.9386270210269 89.81397234064673 0  440.0041142971544 87.52404316283014 0  438.0422831897421 85.25747442512349 0  436.0534157701649 83.01459201399018 0  434.0377979907771 80.79571840315057 0  431.9957196541004 78.60117261898753 0  429.9274743620823 76.43127018474144 0  427.8333594859367 74.28632308796901 0  425.7136761283247 72.16663973969838 0  423.5687290359737 70.07252488617331 0  421.3988265987173 68.00427960915448 0  419.2042808240311 65.962201298694 0  416.9854072196475 63.94658354201471 0  414.742524818212 61.95771614734943 0  412.4759560828471 59.99588505781063 0  410.1860269003736 58.06137234555209 0  407.8730665183855 56.15445615624427 0  405.5374074948106 54.27541066643354 0  403.1793856410161 52.424506037209 0  400.7993399855741 50.60200838545225 0  398.3976127114923 48.80817973503514 0  395.9745491514178 47.04327801218227 0  393.5304976958927 45.30755697591243 0  391.0658097308475 43.60126617398947 0  388.5808396359472 41.92465094154986 0  386.0759446832285 40.27795233078868 0  383.5514850239504 38.66140710249451 0  381.007823619977 37.07524768041412 0  378.4453262000283 35.51970212308933 0  375.8643611921311 33.99499408185753 0  373.2652996617874 32.50134276439832 0  370.6485153256615 31.03896294154612 0  368.0143843882092 29.60806485383361 0  365.3632855907917 28.2088542396306 0  362.6956001322776 26.84153228966238 0  360.0117115354126 25.50629557814059 0  357.3120057003284 24.20333609069269 0  354.596870775138 22.93284115916481 0  351.8666971306181 21.69499345021163 0  349.121877320111 20.48997094563194 0  346.3628059771881 19.31794689616012 0  343.5898798100648 18.17908981902079 0  340.8034974914794 17.07356345121562 0  338.0040596332272 16.00152673987083 0  335.1919687416658 14.9631338238211 0  332.3676291322006 13.95853400061199 0  329.5314468917599 12.98787171264172 0  326.6838297822748 12.05128651341042 0  323.8251872378164 11.14891306652726 0  320.9559302656854 10.28088111264219 0  318.076471404611 9.447315456473888 0  315.1872246503818 8.648335944454999 0  312.2886054290304 7.88405745654299 0  309.3810304838133 7.154589875203868 0  306.4649178487239 6.460038079298243 0  303.5406868253978 5.800501936910877 0  300.6087578339258 5.176076270093546 0  297.669552426172 4.586850858621602 0  294.7234931936628 4.0329104197954 0  291.7710037123022 3.514334597594029 0  288.8125084726372 3.031197949900047 0  285.8484328697872 2.58356994576863 0  282.8792030484304 2.171514940473202 0  279.905245932244 1.795092180408318 0  276.9269891008954 1.454
[...]
<PointData  Vectors="f_12"> 
<DataArray  type="Float64"  Name="f_12"  NumberOfComponents="3" format="ascii">4.8650347239234154e-01 1.8700072212903227e-01 4.1855422051100860e-01  4.8594970431250917e-01 2.6022484852207867e-01 3.7434413722528764e-01  4.9017232851551817e-01 1.7149594239739394e-01 4.4635772916207422e-01  5.2168632592324649e-01 1.7792945045806097e-01 5.9298547190648898e-01  4.9020892439840752e-01 1.7140049854963579e-01 4.4660045822590272e-01  4.9024573656279369e-01 1.7130523242027057e-01 4.4684418561825984e-01  4.9028126894254476e-01 1.7121393572068630e-01 4.4707903774271113e-01  4.9031549848933398e-01 1.7112662400614354e-01 4.4730489002767848e-01  4.9034888169131136e-01 1.7104205402512826e-01 4.4752480640636927e-01  4.9038174897347958e-01 1.7095937376363055e-01 4.4774097566608118e-01  4.9041361308558074e-01 1.7087973975114748e-01 4.4795022964149411e-01  4.9044476097110878e-01 1.7080241076005973e-01 4.4815447079318105e-01  4.9047508638715404e-01 1.7072759929878922e-01 4.4835303186679493e-01  4.9050448922278173e-01 1.7065549839727062e-01 4.4854528887243672e-01  4.9053322871753308e-01 1.7058546465247959e-01 4.4873294504829320e-01  4.9056041050139193e-01 1.7051958601445763e-01 4.4891020636103390e-01  4.9058692357241246e-01 1.7045569004639027e-01 4.4908289026632464e-01  4.9061292735364276e-01 1.7039337381075975e-01 4.4925204852105388e-01  4.9063768677990061e-01 1.7033434294127781e-01 4.4941292567074903e-01  4.9066144662992756e-01 1.7027796436898548e-01 4.4956714402168835e-01  4.9068429507509070e-01 1.7022401811405466e-01 4.4971528494463703e-01  4.9070659162222563e-01 1.7017163995975895e-01 4.4985969208721405e-01  4.9072830980620002e-01 1.7012086245302638e-01 4.5000021061653722e-01  4.9074810667003477e-01 1.7007474538290912e-01 4.5012818835681651e-01  4.9076689082697478e-01 1.7003117765320300e-01 4.5024950568679911e-01  4.9078553621728221e-01 1.6998812462232318e-01 4.5036981883487998e-01  4.9080323043768148e-01 1.6994742394460025e-01 4.5048390138502614e-01  4.9081947561973721e-01 1.6991019376135363e-01 4.5058855669543263e-01  4.9083484199788063e-01 1.6987509710181764e-01 4.5068748081798066e-01  4.9084936927706008e-01 1.6984203291589836e-01 4.5078093641878786e-01  4.9086296501334226e-01 1.6981120491873919e-01 4.5086833310769442e-01  4.9087542103631560e-01 1.6978304536252975e-01 4.5094835442571146e-01  4.9088723605723839e-01 1.6975642235184035e-01 4.5102421081626393e-01  4.9089817648846101e-01 1.6973184799071148e-01 4.5109440973747911e-01  4.9090740796343285e-01 1.6971116799906960e-01 4.5115360997278048e-01  4.9091573825956003e-01 1.6969257179598685e-01 4.5120699766116723e-01  4.9092360780396893e-01 1.6967506376800254e-01 4.5125740525233754e-01  4.9093060038222608e-01 1.6965956257172859e-01 4.5130216924527838e-01  4.9093650320551768e-01 1.6964653112980338e-01 4.5133993230536673e-01  4.9094095860306369e-01 1.6963675720107996e-01 4.5136840726530114e-01  4.9094590421811746e-01 1.6962594674263923e-01 4.5140000315621376e-01  4.9094717673487198e-01 1.6962329617922134e-01 4.5140807590904919e-01  4.9094918399174292e-01 1.6961906213163180e-01 4.5142083855147563e-01  4.9094989121157750e-01 1.6961773568938895e-01 4.5142527091802787e-01  4.9094961678211479e-01 1.6961861544396062e-01 4.5142340989794366e-01  4.9094840260276035e-01 1.6962160998325637e-01 4.5141552315199468e-01  4.9094604924267921e-01 1.6962716099994554e-01 4.5140033360411508e-01  4.9094275393945047e-01 1.6963483717156577e-01 4.5137910102570777e-01  4.9093846315146267e-01 1.6964476104912785e-01 4.5135148016307131e-01  4.9093290226037201e-01 1.6965754606745637e-01 4.5131570929238346e-01  4.9092661607988164e-01 1.6967199621383861e-01 4.5127527091159519e-01  4.9091904198312603e-01 1.6968936537541057e-01 4.5122655733837208e-01  4.9091047501203017e-01 1.6970901126324558e-01 4.5117145112472667e-01  4.9090064076415807e-01 1.6973155915934610e-01 4.5110818455399376e-01  4.9089024807247339e-01 1.6975543932275869e-01 4.5104129631623990e-01  4.9087892898058694e-01 1.6978148721907443e-01 4.5096841798999932e-01  4.9086565066155974e-01 1.6981202994802747e-01 4.5088291125028013e-01  4.9085181683402723e-01 1.6984394721096277e-01 4.5079377203852011e-01  4.9083774856296558e-01 1.6987652043130214e-01 4.5070306072881644e-01  4.9082233036275419e-01 1.6991229214296921e-01 4.5060359098927671e-01  4.9080502787501146e-01 1.6995249927265590e-01 4.5049190854786242e-01  4.9078683845715804e-01 1.6999491407275866e-01 4.5037441141554269e-01  4.9076769915546087e-01 1.7003970286780676e-01 4.5025067971196486e-01  4.9074766750404697e-01 1.7008675555525704e-01 4.5012107126213552e-01  4.9072619784043714e-01 1.7013737092246220e-01 4.4998203740061921e-01  4.9070446153674219e-01 1.7018885166711933e-01 4.4984114142019693e-01  4.9068037708923357e-01 1.7024609227966400e-01 4.4968488227471504e-01  4.9065610275293725e-01 1.7030409933732027e-01 4.4952720945966901e-01  4.9063098787330550e-01 1.7036440416843901e-01 4.4936390147509764e-01  4.9060431111373853e-01 1.7042877136306453e-01 4.4919023873100189e-01  4.9057574037950119e-01 1.7049804512381053e-01 4.4900402792994570e-01  4.9054676022305643e-01 1.7056873763653707e-01 4.4881489700680466e-01  4.9051743730000641e-01 1.7064072146990641e-01 4.4862326154535725e-01  4.9048650330907023e-01 1.7071709291519335e-01 4.4842082506289332e-01  4.9045379534657152e-01 1.7079831730040076e-01 4.4820648043832034e-01  4.9042034070739898e-01 1.7088196431602437e-01 4.4798690108772454e-01  4.9038586635802067e-01 1.7096876063345198e-01 4.4776026547051279e-01  4.9035028115633422e-01 1.7105900038876687e-01 4.4752593408344826e-01  4.9031335804377624e-01 1.7115328832934124e-01 4.4728238990328328e-01  4.9027556237485781e-01 1.7125055890231169e-01 4.4703263658105202e-01  4.9023698514608360e-01 1.7135063889731650e-01 4.4677724046027883e-01  4.9019673620646437e-01 1.7145587184235447e-01 4.4651027466394205e-01  4.9015502103450381e-01 1.7156582119809533e-01 4.4623304404125708e-01  4.9011255483966815e-01 1.7167876024964648e-01 4.4595021867886536e-01  4.9006886542975719e-01 1.7179599407644644e-01 4.4565861657772349e-01  4.9002385637014872e-01 1.7191782750346024e-01 4.4535756313876812e-01  4.8997833586718748e-01 1.7204224817949548e-01 4.4505237362871292e-01  4.8993123007925687e-01 1.7217227549404521e-01 4.4473578564783589e-01  4.8988245204698178e-01 1.7230820707026315e-01 4.4440717571934668e-01  4.8983292003805778e-01 1.7244769946938612e-01 4.4407261496541667e-01  4.8978222053660331e-01 1.7259199305979467e-01 4.4372926072434393e-01  4.8973046664475317e-01 1.7274089619236668e-01 4.4337780416316935e-01  4.8967769616014062e-01 1.7289443786717126e-01 4.4301841997304414e-01  4.8962297769694724e-01 1.7305542009607058e-01 4.4264469761556985e-01  4.8956770573321573e-01 1.7322000146841995e-01 4.4226602703268408e-01  4.8951111178620971e-01 1.7339056314609932e-01 4.4187707861591308e-01  4.8945332783370316e-01 1.7356682760930620e-01 4.4147868791696865e-01  4.8939476167825352e-01 1.7374781558135638e-01 4.4107351946557882e-01  4.8933441068344768e-01 1.7393668966934292e-01 4.4065458417512221e-01  4.8927307022703692e-01 1.7413126736642065e-01 4.4022723423069415e-01  4.8921096321308249e-01 1.7433098946418951e-01 4.3979293992166030e-01  4.8914699402750661e-01 1.7453961347242358e-01 4.3934388934749735e-01  4.8908226429521767e-01 1.7475376299551831e-01 4.3888770290994245e-01  4.8901663649435034e-01 1.7497413137959664e-01 4.3842327083941512e-01  4.8894935253331118e-01 1.7520341080168009e-01 4.3794513123705830e-01  4.8888109471348468e-01 1.7543972908930383e-01 4.3745788146927644e-01  4.8881174743368339e-01 1.7568365083405016e-01 4.3696059957504751e-01  4.8874138538804407e-01 1.7593516659085312e-01 4.3645367497767124e-01  4.8866988678123940e-01 1.7619507677231994e-01 4.3593601678020727e-01  4.8859711886457902e-01 1.7646409171770028e-01 4.3540653040218319e-01  4.8852374648147234e-01 1.7674018695030813e-01 4.3486981402689034e-01  4.8844875554940942e-01 1.7702743786645084e-01 4.3431828652852950e-01  4.8837247776240306e-01 1.7732506998897390e-01 4.3375410386010282e-01  4.8829568284757119e-01 1.7763037835656925e-01 4.3318279874297955e-01  4.8821809698130458e-01 1.7794493867615818e-01 4.3260205496431525e-01  4.8813922054022590e-01 1.7827102654332794e-01 4.3200797910595184e-01  4.8805943159291648e-01 1.7860761248716356e-01 4.3140311655708857e-01  4.8797896763383258e-01 1.7895427565179614e-01 4.3078894549093782e-01  4.8789764109532352e-01 1.7931213954339995e-01 4.3016385308653737e-01  4.8781450253680042e-01 1.7968634694750776e-01 4.2951997341855713e-01  4.8773070358254345e-01 1.8007179145257970e-01 4.2886619231768908e-01  4.8764682957208993e-01 1.8046667248825035e-01 4.2820658227146963e-01  4.8756250943048368e-01 1.8087335117791570e-01 4.2753788109448082e-01  4.8747656619836238e-01 1.8129799336298205e-01 4.2685045058671117e-01  4.8739008388221522e-01 1.8173585520230889e-01 4.2615262524921060e-01  4.8730327020045050e-01 1.8218701526739500e-01 4.2544545261164052e-01  4.8721560110101431e-01 1.8265508438759670e-01 4.2472415746875924e-01  4.8712774348839422e-01 1.8313688319287674e-01 4.2399401149868415e-01  4.8703939407726993e-01 1.8363503005492951e-01 4.2325195402079785e-01  4.8695050357181568e-01 1.8415097862489554e-01 4.2249691049534133e-01  4.8686137364649790e-01 1.8468382632937161e-01 4.2173096570106938e-01  4.8677207295051772e-01 1.8523427951568563e-01 4.2095408477111584e-01  4.8668265892124080e-01 1.8580306402878194e-01 4.2016616046469241e-01  4.8659309415762642e-01 1.8639161657639128e-01 4.1936618826110150e-01  4.8641393087347651e-01 1.8763077116013566e-01 4.1773075945808985e-01  4.8632465463045321e-01 1.8828192985973613e-01 4.1689668455978174e-01  4.8623556411312896e-01 1.8895628759647437e-01 4.1605040011790984e-01  4.8614701435577118e-01 1.8965299419972623e-01 4.1519426141517329e-01  4.8605900964255677e-01 1.9037377387025942e-01 4.1432732350215512e-01  4.8597159921805694e-01 1.9111982718227014e-01 4.1344916629623069e-01  4.8588514253706189e-01 1.9189048603218245e-01 4.1256207000661727e-01  4.8579972723247278e-01 1.9268687582196506e-01 4.1166586457907561e-01  4.8571514810690647e-01 1.9351315329351526e-01 4.1075713328667945e-01  4.8563220055547152e-01 1.9436515385484471e-01 4.0984243874623666e-01  4.8554982008081377e-01 1.9525515474749691e-01 4.0890921541666431e-01  4.8546945798433155e-01 1.9617136060153900e-01 4.0797179274486434e-01  4.8539103745319412e-01 1.9711827621469066e-01 4.0702724321049832e-01  4.8531440723485542e-01 1.9810074592346172e-01 4.0607203353509935e-01  4.8523989977646581e-01 1.9911750499939221e-01 4.0510862489181826e-01  4.8516814574918776e-01 2.0016669813695634e-01 4.0414143298374983e-01  4.8509862551967553e-01 2.0125834294316330e-01 4.0316206043229846e-01  4.8503205769497243e-01 2.0238737802450957e-01 4.0217714896508061e-01  4.8496854793121175e-01 2.0355682374157308e-01 4.0118554946736695e-01  4.8490856238799057e-01 2.0476494242628834e-01 4.0019072570406733e-01  4.8485220385537581e-01 2.0601685927576349e-01 3.9919033420063599e-01  4.8479946533780749e-01 2.0731993414618577e-01 3.9818016825151908e-01  4.8475115500342342e-01 2.0866790401565544e-01 3.9716806035899938e-01  4.8470740980868610e-01 2.1006347171301579e-01 3.9615317371951742e-01  4.8466868066181845e-01 2.1150780055629514e-01 3.9513725491121260e-01  4.8463508951618356e-01 2.1300614278597371e-01 3.9411793216356150e-01  4.8460732869841233e-01 2.1455578028137329e-01 3.9310044445331560e-01  4.8458550459613758e-01 2.1616883249110128e-01 3.9207846132926538e-01  4.8457013948853117e-01 2.1783890851535742e-01 3.9105831175527678e-01  4.8456165319186384e-01 2.1956362708611044e-01 3.9004349861230064e-01  4.8456060505269938e-01 2.2135602236624655e-01 3.8902965198808359e-01  4.8456727297661145e-01 2.2321755631773593e-01 3.8801726350241805e-01  4.8458244646799248e-01 2.2514437888820391e-01 3.8701271411253574e-01  4.8460649862646465e-01 2.2714383248319664e-01 3.8601368700565691e-01  4.8463992774624526e-01 2.2921647708497489e-01 3.8502238999927635e-01  4.8468334027367882e-01 2.3136463670055890e-01 3.8404059332518531e-01  4.8473746122130523e-01 2.3358871691654137e-01 3.8307188628757649e-01  4.8480297790129029e-01 2.3590350375223687e-01 3.8211117798355515e-01  4.8488032450422441e-01 2.3829677300143765e-01 3.8116767662096995e-01  4.8497037357482731e-01 2.4078068421516771e-01 3.8023880315353087e-01  4.8507392688785322e-01 2.4336080396683887e-01 3.7932534482271835e-01  4.8519162122804044e-01 2.4603295897818064e-01 3.7843280994456957e-01  4.8532456654081518e-01 2.4880145743406845e-01 3.7756444764416175e-01  4.8547279501232560e-01 2.5167383501898094e-01 3.7671526280462975e-01  4.8563799140205172e-01 2.5464825801755037e-01 3.7589534928507096e-01  4.8582122875445621e-01 2.5773984878362716e-01 3.7510086261345349e-01  4.8602262866204460e-01 2.6093709706281559e-01 3.7433859994446061e-01  4.8624359139938844e-01 2.6424837638545551e-01 3.7361060368448490e-01  4.8648543357133589e-01 2.6768448090577213e-01 3.7291670297921919e-01  4.8674895682975844e-01 2.7124129565440375e-01 3.7226289620938852e-01  4.8703581007179514e-01 2.7493261722772633e-01 3.7164869872412964e-01  4.8734609950988078e-01 2.7874478335723646e-01 3.7108188554742244e-01  4.8768102204321917e-01 2.8268245838901906e-01 3.7056475286703616e-01  4.8804307905149624e-01 2.8676813968847537e-01 3.7009594544124391e-01  4.8843218791215814e-01 2.9098709697901842e-01 3.6968223779067821e-01  4.8885016022173378e-01 2.9534382494890016e-01 3.6932918498735590e-01  4.8929860736961056e-01 2.9984870889032783e-01 3.6903692252030218e-01  4.8977806432639986e-01 3.0449417231147530e-01 3.6881091373373071e-01  4.9028948614281448e-01 3.0927825406571757e-01 3.6865505402738891e-01  4.9083399155437751e-01 3.1419964060497385e-01 3.6857376065801711e-01  4.9141488318411175e-01 3.1927747697350167e-01 3.6856990432549502e-01  4.9203219458245562e-01 3.2449978537507196e-01 3.6864801484792753e-01  4.9268576272645559e-01 3.2985308353791809e-01 3.6881200984021190e-01  4.9337602725551616e-01 3.3532927271724011e-01 3.6906588658506057e-01  4.9410473109886632e-01 3.4093368950282765e-01 3.6941152131050592e-01  4.9487274201014708e-01 3.4665777961215544e-01 3.6985500712898645e-01  4.9567957791888106e-01 3.5248902623155737e-01 3.7039713196399177e-01  4.9652403866137085e-01 3.5840792199686894e-01 3.7103948442039147e-01  4.9740520615027212e-01 3.6439426655428986e-01 3.7178617531335817e-01  4.9832603836481559e-01 3.7046127540069512e-01 3.7263852772602990e-01  4.9928226865514053e-01 3.7657037360701362e-01 3.7359545807821337e-01  5.0026730625856231e-01 3.8266990292630082e-01 3.7465198620231271e-01  5.0127897688769907e-01 3.8874279542974899e-01 3.7580481654208320e-01  5.0231652835516249e-01 3.9477943361979778e-01 3.7705303180142391e-01  5.0337194265762730e-01 4.0072969700624983e-01 3.7838702276528480e-01  5.0443593355076677e-01 4.0653990404645662e-01 3.7979452897298532e-01  5.0550142204224979e-01 4.1217685887508215e-01 3.8126279554858117e-01  5.0655676140588723e-01 4.1758361423314555e-01 3.8277462696661824e-01  5.0758913963614605e-01 4.2270422874810537e-01 3.8430926400341114e-01  5.0858327442111351e-01 4.2747866337140511e-01 3.8583927645776267e-01  5.0951881226453843e-01 4.3182673911561037e-01 3.8733014709426977e-01  5.1037666442298857e-01 4.3567946224576459e-01 3.8874900125849415e-01  5.1113409932080722e-01 4.3895577362755600e-01 3.9005669102323670e-01  5.1176568356301699e-01 4.4156467025148854e-01 3.9121025238202373e-01  5.1224299154481368e-01 4.4340202219716157e-01 3.9216294106432936e-01  5.1253666045505597e-01 4.4435485895657595e-01 3.9286889208079456e-01  5.1261526025280546e-01 4.4429160743598095e-01 3.9328230509320355e-01  5.1244739861292044e-01 4.4306418275826071e-01 3.9336242705082586e-01  5.1200542271643057e-01 4.4051686151702074e-01 3.9308071546274714e-01  5.1126510251216939e-01 4.3647727797616198e-01 3.9242168997394722e-01  5.1020820968711678e-01 4.3076114453882230e-01 3.9138813330979960e-01  5.0882992105133640e-01 4.2320329446621441e-01 3.9001267982080667e-01  5.0713667835710885e-01 4.1364830252667750e-01 3.8835562771357157e-01  5.0515798051628003e-01 4.0201948802604726e-01 3.8652013952905384e-01  5.0294316894337165e-01 3.8832334747768610e-01 3.8464719672901887e-01  5.0056335373055660e-01 3.7268458639059010e-01 3.8291715106213864e-01  4.9811323847188205e-01 3.5540057153305721e-01 3.8154546786722243e-01  4.9569838853744819e-01 3.3694642776082889e-01 3.8073070725493091e-01  4.9341652553874887e-01 3.1774875161463129e-01 3.8070980067138632e-01  4.9136539466809986e-01 2.9836908789234595e-01 3.8168027798916321e-01  4.8963975303570417e-01 2.7951047990145944e-01 3.8377094647192511e-01  4.8830550449841942e-01 2.6167084280983455e-01 3.8711639035140405e-01  4.8738786305679971e-01 2.4527233249986533e-01 3.9167162890671259e-01  4.8689399816831641e-01 2.3047912695301781e-01 3.9744593043311277e-01  4.8679052723193222e-01 2.1727297557350778e-01 4.0431100870957909e-01  4.8709326124293445e-01 2.0620252486554858e-01 4.1207563580025447e-01  4.8771203325342888e-01 1.9667669641702193e-01 4.2060265091421173e-01  4.8861149543783261e-01 1.8871444364215503e-01 4.2969500189793552e-01  4.8974862244619061e-01 1.8212521740811138e-01 4.3922507381046444e-01  4.9108120919072956e-01 1.7678313870193821e-01 4.4903200825892936e-01  4.9254854795292868e-01 1.7257374068342457e-01 4.5885424801975433e-01  4.9412920631525387e-01 1.6930981514396992e-01 4.6867162175774069e-01  4.9578893268900637e-01 1.6684986082007058e-01 4.7837810512824525e-01  4.9749239975394577e-01 1.6508322002216114e-01 4.8784897944318451e-01  4.9922008080850111e-01 1.6391544698450786e-01 4.9703338098749117e-01  5.0095396550834748e-01 1.6324704110092608e-01 5.0589537337854218e-01  5.0267384658805614e-01 1.6300060828370383e-01 5.1437764897835547e-01  5.0437120771130439e-01 1.6310533084503565e-01 5.2247932985083834e-01  5.0604240322884120e-01 1.6350497793912022e-01 5.3021798169459577e-01  5.0765361252871677e-01 1.6414309141789371e-01 5.3746728782297093e-01  5.0923897520671535e-01 1.6499078152452587e-01 5.4440919926226294e-01  5.1074074638380629e-01 1.6598719722476027e-01 5.5081428258664267e-01  5.1220650592505523e-01 1.6712047781524583e-01 5.5691716337998709e-01  5.1361082144211778e-01 1.6834954240837396e-01 5.6262826709756752e-01  5.1495622568789179e-01 1.6965477180012054e-01 5.6797645787402773e-01  5.1623423966442361e-01 1.7100655172235354e-01 5.7294776304685902e-01  5.1746380682463511e-01 1.7240605535533365e-01 5.7763116332228825e-01  5.1859279735664410e-01 1.7377731780341887e-01 5.8184635127980866e-01  5.1968700979094207e-01 1.7518029282639297e-01 5.8585488594790980e-01  5.2071556109920458e-01 1.7656332011409964e-01 5.8955557211046283e-01  5.2259038251695589e-01 1.7924942468974689e-01 5.9612854094024337e-01  5.2344140597968480e-01 1.8053708007377567e-01 5.9903984978759173e-01  5.2423107624291532e-01 1.8177036850537953e-01 6.0170073473056729e-01  5.2495671832990187e-01 1.8293579401690724e-01 6.0411149880657944e-01  5.2562218313609665e-01 1.8403143487824461e-01 6.0629368725994337e-01  5.2625247149078080e-01 1.8509163780671492e-01 6.0833545025227787e-01  5.2680489157362720e-01 1.8604177105902250e-01 6.1010308625541676e-01  5.2732489093950274e-01 1.8695095226579952e-01 6.1175038037270268e-01  5.2777610567885114e-01 1.8775263959090899e-01 6.1316621526873560e-01  5.2818029220167351e-01 1.8848103843251821e-01 6.1442320092795422e-01  5.2853502514106809e-01 1.8912770831556372e-01 6.1551820508827726e-01  5.2883676318899253e-01 1.8968374871304344e-01 6.1644308839352957e-01  5.2908921616019045e-01 1.9015274385789002e-01 6.1721274652248181e-01  5.2929572857681573e-01 1.9053884752477548e-01 6.1783936229217318e-01  5.2945593252978351e-01 1.9083961892391640e-01 6.1832377568876662e-01  5.2956255079958070e-01 1.9104043336181212e-01 6.1864534539353000e-01  5.2962517817719246e-01 1.9115821490839657e-01 6.1883402415574129e-01  5.2963571128241560e-01 1.9117730702690780e-01 6.1886601488179771e-01  5.2959204563128615e-01 1.9109370483956858e-01 6.1873501582844004e-01  5.2951553435680254e-01 1.9094721550002958e-01 6.1850522498543581e-01  5.2939013745