<?xml version="1.0"?>
<VTKFile type="UnstructuredGrid"  version="0.1"  >
<UnstructuredGrid>
<Piece  NumberOfPoints="25605" NumberOfCells="50684">
<Points>
<DataArray  type="Float64"  NumberOfComponents="3"  format="ascii">500 250 0  0 250 0  250 500 0  250 0 0  252.9976310880008 499.9820277697183 0  255.994831180465 499.9281136629446 0  258.9911693467 499.8382654314166 0  261.9862147844171 499.7124959931758 0  264.9795368730259 499.550823430959 0  267.9707052380909 499.3532709896657 0  270.9592898147818 499.1198670729815 0  273.944860911003 498.850645239173 0  276.9269892620302 498.5456441969613 0  279.9052461102784 498.204907798141 0  282.879203246639 497.8284850332306 0  285.8484330760252 497.4164300243493 0  288.812508703066 496.9688020138868 0  291.7710039592635 496.4856653605544 0  294.7234934645729 495.9670895309458 0  297.6695527219374 495.4131490839284 0  300.6087581526373 494.8239236640241 0  303.5406871632312 494.1994979890193 0  306.4649182085955 493.5399618372653 0  309.3810308492501 492.8454100354388 0  312.2886058121011 492.1159424449053 0  315.1872250543244 491.3516639464432 0  318.0764718164482 490.552684426976 0  320.9559306911491 489.7191187614222 0  323.8251876776197 488.8510867975364 0  326.6838302398962 487.9487133391117 0  329.5314473625203 487.0121281293906 0  332.3676296259557 486.0414658270902 0  335.1919692490408 485.0368659922747 0  338.0040601519906 483.9984730650284 0  340.8034980252745 482.926436340691 0  343.5898803648273 481.8209099570125 0  346.3628065522297 480.6820528636277 0  349.1218779058009 479.5100288014175 0  351.866697726272 478.3050062840155 0  354.5968713702315 477.0671585667096 0  357.3120063039883 475.7966636224122 0  360.0117121560444 474.4937041177227 0  362.6956007624657 473.158467392091 0  365.3632862410136 471.7911454221605 0  368.0143850392318 470.39193479756 0  370.6485159774368 468.9610366993228 0  373.2653003309281 467.4986568563726 0  375.8643618621848 466.0050055277077 0  378.4453268904447 464.4802974634425 0  381.0078243277097 462.9247518841339 0  383.5514857466806 461.3385924407896 0  386.0759454147861 459.7220471945478 0  388.5808403686633 458.0753485704519 0  391.0658104727646 456.398733318938 0  393.5304984398443 454.6924425024281 0  395.9745499014433 452.9567214483695 0  398.3976134594079 451.1918197133078 0  400.7993407313268 449.3979910505549 0  403.1793863983767 447.5754933756127 0  405.5374082633365 445.7245887228382 0  407.8730672875487 443.8455432173283 0  410.1860276678057 441.9386270139729 0  412.4759568502628 440.0041142859584 0  414.7425255888164 438.0422831775295 0  416.9854079982472 436.0534157591817 0  419.2042816111551 434.0377979776246 0  421.3988273934515 431.9957196423856 0  423.5687298230711 429.9274743545459 0  425.7136769203488 427.833359477718 0  427.8333602660664 425.7136761224903 0  429.9274751166117 423.5687290330868 0  431.9957203865596 421.3988266032683 0  434.0377986976932 419.2042808279605 0  436.0534164531565 416.9854072250276 0  438.0422838486247 414.7425248228072 0  440.0041149354581 412.4759560907189 0  441.9386276454979 410.1860269110977 0  443.8455438341414 407.8730665301906 0  445.7245893245478 405.5374075061595 0  447.5754939498422 403.1793856577179 0  449.3979916037435 400.7993399998601 0  451.1918202566634 398.3976127227471 0  452.9567219786559 395.9745491641559 0  454.6924430171686 393.53049770576 0  456.3987338202434 391.0658097392857 0  458.0753490553683 388.5808396405746 0  459.7220476673142 386.0759446861523 0  461.3385928978555 383.5514850233965 0  462.924752323721 381.0078236132563 0  464.4802978831972 378.4453261895309 0  466.005005928237 375.8643611748071 0  467.4986572464557 373.2652996426359 0  468.9610370690891 370.64851530636 0  470.3919351512159 368.0143843787793 0  471.7911457549822 365.363285601149 0  473.1584677051019 362.6956001426453 0  474.4937044170927 360.0117115451396 0  475.7966639080153 357.3120057030471 0  477.0671588375024 354.5968707823731 0  478.3050065468899 351.8666971371142 0  479.5100290514928 349.1218773267684 0  480.68205310082 346.3628059844174 0  481.8209101826405 343.5898798059497 0  482.926436550004 340.8034974883511 0  483.9984732613996 338.0040596298491 0  485.0368661774559 335.1919687381426 0  486.0414660017697 332.3676291253755 0  487.0121282892932 329.5314468859938 0  487.9487134870012 326.6838297809975 0  488.8510869337421 323.825187236945 0  489.7191188882317 320.9559302627332 0  490.5526845449373 318.0764713996244 0  491.3516640573307 315.1872246437704 0  492.1159425458163 312.2886054198597 0  492.8454101279934 309.3810304707378 0  493.5399619220304 306.4649178429931 0  494.1994980644915 303.5406868190015 0  494.8239237308971 300.6087578291331 0  495.4131491423161 297.6695524213444 0  495.9670895813101 294.7234931875826 0  496.4856654030534 291.7710037084818 0  496.9688020494549 288.8125084767419 0  497.416430053242 285.8484328766153 0  497.8284850586459 282.8792030550702 0  498.2049078189591 279.9052459374942 0  498.5456442137286 276.9269891072627 0  498.850645253019 273.9448607671062 0  499.1198670835989 270.9592896885852 0  499.3532709967772 267.9707051394148 0  499.5508234355897 264.9795367958812 0  499.7124959959075 261.9862147275054 0  499.8382654331632 258.9911692981657 0  499.928113663985 255.99483113709 0  499.9820277699785 252.9976310663071 0  499.9820277697257 247.0023689126091 0  499.9281136630343 244.0051688232745 0  499.8382654314717 241.0088306548307 0  499.7124959931211 238.0137852144455 0  499.5508234310553 235.0204631285785 0  499.3532709900699 232.0292947675166 0  499.119867073792 229.0407101948513 0  498.8506452406773 226.0551391046306 0  498.5456441987692 223.0730107546571 0  498.2049078002218 220.0947539069917 0  497.8284850356648 217.120796771709 0  497.4164300267099 214.151566940267 0  496.968802017216 211.187491318118 0  496.4856653659872 208.2289960727951 0  495.9670895372035 205.2765065698432 0  495.4131490907147 202.330447313 0  494.8239236713522 199.3912418828135 0  494.1994979969027 196.4593128727251 0  493.5399618460726 193.5350818293917 0  492.8454100458835 190.6189691934644 0  492.1159424557956 187.7113942302294 0  491.3516639574156 184.8127749862999 0  490.5526844387521 181.923528225163 0  489.7191187738694 179.0440693509028 0  488.851086810667 176.1748123648628 0  487.948713352938 173.3161698030064 0  487.0121281439243 170.4685526807917 0  486.0414658415049 167.6323704153526 0  485.0368660060558 164.8080307889799 0  483.9984730779887 161.9959398824702 0  482.9264363544502 159.1965020100202 0  481.8209099702043 156.4101196678486 0  480.6820528745703 153.6371934739656 0  479.5100288124721 150.8781221197951 0  478.3050062927852 148.1333022933829 0  477.0671585723666 145.403128642049 0  475.796663627405 142.687993706517 0  474.4937041236649 139.9882878560814 0  473.1584673984938 137.3043992502131 0  471.7911454319914 134.6367137778867 0  470.3919348096422 131.9856149833316 0  468.9610367113798 129.3514840444451 0  467.49865687022 126.7346996935054 0  466.0050055427385 124.1356381636107 0  464.4802974781252 121.5546731340727 0  462.9247519005733 118.992175699009 0  461.3385924615702 116.4485142862037 0  459.722047215144 113.924054616957 0  458.0753485880027 111.4191596576888 0  456.3987333337139 108.9341895488548 0  454.692442514023 106.4695015766915 0  452.95672145825 104.0254501122942 0  451.1918197247282 101.6023865560754 0  449.3979910627008 99.20065928473332 0  447.5754933882043 96.82061361786421 0  445.7245887341124 94.46259175085058 0  443.8455432269008 92.12693272420489 0  441.9386270210269 89.81397234064673 0  440.0041142971544 87.52404316283014 0  438.0422831897421 85.25747442512349 0  436.0534157701649 83.01459201399018 0  434.0377979907771 80.79571840315057 0  431.9957196541004 78.60117261898753 0  429.9274743620823 76.43127018474144 0  427.8333594859367 74.28632308796901 0  425.7136761283247 72.16663973969838 0  423.5687290359737 70.07252488617331 0  421.3988265987173 68.00427960915448 0  419.2042808240311 65.962201298694 0  416.9854072196475 63.94658354201471 0  414.742524818212 61.95771614734943 0  412.4759560828471 59.99588505781063 0  410.1860269003736 58.06137234555209 0  407.8730665183855 56.15445615624427 0  405.5374074948106 54.27541066643354 0  403.1793856410161 52.424506037209 0  400.7993399855741 50.60200838545225 0  398.3976127114923 48.80817973503514 0  395.9745491514178 47.04327801218227 0  393.5304976958927 45.30755697591243 0  391.0658097308475 43.60126617398947 0  388.5808396359472 41.92465094154986 0  386.0759446832285 40.27795233078868 0  383.5514850239504 38.66140710249451 0  381.007823619977 37.07524768041412 0  378.4453262000283 35.51970212308933 0  375.8643611921311 33.99499408185753 0  373.2652996617874 32.50134276439832 0  370.6485153256615 31.03896294154612 0  368.0143843882092 29.60806485383361 0  365.3632855907917 28.2088542396306 0  362.6956001322776 26.84153228966238 0  360.0117115354126 25.50629557814059 0  357.3120057003284 24.20333609069269 0  354.596870775138 22.93284115916481 0  351.8666971306181 21.69499345021163 0  349.121877320111 20.48997094563194 0  346.3628059771881 19.31794689616012 0  343.5898798100648 18.17908981902079 0  340.8034974914794 17.07356345121562 0  338.0040596332272 16.00152673987083 0  335.1919687416658 14.9631338238211 0  332.3676291322006 13.95853400061199 0  329.5314468917599 12.98787171264172 0  326.6838297822748 12.05128651341042 0  323.8251872378164 11.14891306652726 0  320.9559302656854 10.28088111264219 0  318.076471404611 9.447315456473888 0  315.1872246503818 8.648335944454999 0  312.2886054290304 7.88405745654299 0  309.3810304838133 7.154589875203868 0  306.4649178487239 6.460038079298243 0  303.5406868253978 5.800501936910877 0  300.6087578339258 5.176076270093546 0  297.669552426172 4.586850858621602 0  294.7234931936628 4.0329104197954 0  291.7710037123022 3.514334597594029 0  288.8125084726372 3.031197949900047 0  285.8484328697872 2.58356994576863 0  282.8792030484304 2.171514940473202 0  279.905245932244 1.795092180408318 0  276.9269891008954 1.454
[...]
<PointData  Vectors="f_12"> 
<DataArray  type="Float64"  Name="f_12"  NumberOfComponents="3" format="ascii">5.6148617805418466e-01 2.9083864396372855e-01 6.7511311190072854e-01  5.3846899422004146e-01 2.1813729007144472e-01 6.4017454455919720e-01  5.6859210377927338e-01 3.2582263567131853e-01 6.7378103897867114e-01  5.4933121806565999e-01 4.6170653699346370e-01 5.2675370214943595e-01  5.6864391520918578e-01 3.2614091247426469e-01 6.7372303948627799e-01  5.6869631156064615e-01 3.2646415398998413e-01 6.7366333010565693e-01  5.6874638950330314e-01 3.2677405471743454e-01 6.7360550642004324e-01  5.6879415630138286e-01 3.2707060899997731e-01 6.7354961322632489e-01  5.6884051268726821e-01 3.2735936875148286e-01 6.7349462757131395e-01  5.6888611808327894e-01 3.2764450209795815e-01 6.7343973295504278e-01  5.6893005712538580e-01 3.2792010895439722e-01 6.7338616141072771e-01  5.6897290053691318e-01 3.2818979285160049e-01 6.7333320965000043e-01  5.6901445988402499e-01 3.2845228070421234e-01 6.7328117650053643e-01  5.6905456746108785e-01 3.2870642774798975e-01 6.7323033975281077e-01  5.6909373187371981e-01 3.2895549848006100e-01 6.7318003291124573e-01  5.6913030461204195e-01 3.2918876101803318e-01 6.7313256539353605e-01  5.6916597120486023e-01 3.2941704015478412e-01 6.7308568772210986e-01  5.6920101863442119e-01 3.2964216379983668e-01 6.7303903825027322e-01  5.6923412167638188e-01 3.2985548875130000e-01 6.7299448376566318e-01  5.6926574389716145e-01 3.3005993595145616e-01 6.7295145017440960e-01  5.6929606760547080e-01 3.3025669187627654e-01 6.7290969441447201e-01  5.6932576536179202e-01 3.3045011470577151e-01 6.7286828292723289e-01  5.6935479439913406e-01 3.3063988544690009e-01 6.7282730359460863e-01  5.6938072688010322e-01 3.3081001832259105e-01 6.7279032043341724e-01  5.6940525028955880e-01 3.3097157204596800e-01 6.7275490881285072e-01  5.6942994093983657e-01 3.3113486265235897e-01 6.7271879900727971e-01  5.6945332532746762e-01 3.3129016245968118e-01 6.7268417806791625e-01  5.6947454796697050e-01 3.3143181302990798e-01 6.7265232064495628e-01  5.6949463126477928e-01 3.3156649008164102e-01 6.7262177108887178e-01  5.6951366273262405e-01 3.3169476845164525e-01 6.7259240512463869e-01  5.6953149911573087e-01 3.3181570895584078e-01 6.7256443604614746e-01  5.6954774917966122e-01 3.3192663030367486e-01 6.7253851399015641e-01  5.6956332334552007e-01 3.3203357187980392e-01 6.7251326999405125e-01  5.6957781486354786e-01 3.3213382105706774e-01 6.7248932821398000e-01  5.6958976142676709e-01 3.3221763028694024e-01 6.7246893534220220e-01  5.6960059866860724e-01 3.3229452916242314e-01 6.7244992231243139e-01  5.6961110057564091e-01 3.3236965156846937e-01 6.7243112208105449e-01  5.6962054169594900e-01 3.3243816120465386e-01 6.7241364788540070e-01  5.6962855351366015e-01 3.3249758366633064e-01 6.7239807816703556e-01  5.6963451762632278e-01 3.3254379537909651e-01 6.7238536860626552e-01  5.6964183530957779e-01 3.3259948703288322e-01 6.7237028763667084e-01  5.6964322755713592e-01 3.3261603979404492e-01 6.7236407231983852e-01  5.6964640543771150e-01 3.3264495708901620e-01 6.7235482242578060e-01  5.6964780105930768e-01 3.3266238362187522e-01 6.7234806118289836e-01  5.6964798569166097e-01 3.3267215129454780e-01 6.7234289803415814e-01  5.6964703696334307e-01 3.3267478467567413e-01 6.7233920947852233e-01  5.6964460103536319e-01 3.3266791536888313e-01 6.7233754559144765e-01  5.6964102982678944e-01 3.3265390789411686e-01 6.7233735344073453e-01  5.6963622915465939e-01 3.3263213825711579e-01 6.7233877492313587e-01  5.6962970968429105e-01 3.3259933938961628e-01 6.7234256392401326e-01  5.6962244090065028e-01 3.3256201741810454e-01 6.7234720274332527e-01  5.6961342111693913e-01 3.3251348181012547e-01 6.7235423610217060e-01  5.6960317278822170e-01 3.3245724344059246e-01 6.7236284163174620e-01  5.6959120880171632e-01 3.3239007694109179e-01 6.7237375023995027e-01  5.6957876908542227e-01 3.3232025575306551e-01 6.7238505383988045e-01  5.6956521961826112e-01 3.3224359602188147e-01 6.7239769362799606e-01  5.6954870469827179e-01 3.3214772980430585e-01 6.7241450646976308e-01  5.6953171583391338e-01 3.3204929829754859e-01 6.7243165247312520e-01  5.6951482683846000e-01 3.3195212386089207e-01 6.7244825433903443e-01  5.6949605044038065e-01 3.3184305456564162e-01 6.7246728594454119e-01  5.6947441752668360e-01 3.3171568030757342e-01 6.7249019177638791e-01  5.6945170446267168e-01 3.3158184925523004e-01 6.7251424432574836e-01  5.6942778772926450e-01 3.3144076708492876e-01 6.7253960884250363e-01  5.6940276207095286e-01 3.3129308292926629e-01 6.7256612418551609e-01  5.6937563868011287e-01 3.3113235407516778e-01 6.7259519181761340e-01  5.6934850355755462e-01 3.3097229527632432e-01 6.7262376467385010e-01  5.6931761728123620e-01 3.3078845243883381e-01 6.7265719933232060e-01  5.6928685335785856e-01 3.3060630334890523e-01 6.7268983384351688e-01  5.6925502907338166e-01 3.3041807652887267e-01 6.7272338655143249e-01  5.6922081900890364e-01 3.3021522468479447e-01 6.7275966580017021e-01  5.6918357001355935e-01 3.2999354831857980e-01 6.7279954361040351e-01  5.6914599805788757e-01 3.2977080545187737e-01 6.7283913444790389e-01  5.6910824862336251e-01 3.2954800556369346e-01 6.7287819344755040e-01  5.6906794349533296e-01 3.2930976201494855e-01 6.7291998412134413e-01  5.6902473291353017e-01 3.2905388471331254e-01 6.7296492484416159e-01  5.6898053163183404e-01 3.2879287097188026e-01 6.7301029922168942e-01  5.6893480634660676e-01 3.2852335885936984e-01 6.7305677242135442e-01  5.6888736700000886e-01 3.2824421921556973e-01 6.7310452951633692e-01  5.6883774749536609e-01 3.2795248980811192e-01 6.7315415016189828e-01  5.6878682187036456e-01 3.2765392293142998e-01 6.7320437168874980e-01  5.6873475289100583e-01 3.2734961768413462e-01 6.7325493720074336e-01  5.6867978922682250e-01 3.2702854231317902e-01 6.7330799721385426e-01  5.6862226578564001e-01 3.2669290151599595e-01 6.7336305833363064e-01  5.6856357985852279e-01 3.2635174869101163e-01 6.7341820658428209e-01  5.6850275728567090e-01 3.2599900142710969e-01 6.7347459889006911e-01  5.6843956688890618e-01 3.2563324812430877e-01 6.7353245700611830e-01  5.6837561037260109e-01 3.2526471513037009e-01 6.7358972194367372e-01  5.6830870270141798e-01 3.2487997049600398e-01 6.7364883072402437e-01  5.6823857370070019e-01 3.2447732962074077e-01 6.7371006861176641e-01  5.6816708015879114e-01 3.2406856770239828e-01 6.7377109789019118e-01  5.6809332937619350e-01 3.2364827373347610e-01 6.7383284352057438e-01  5.6801750158706144e-01 3.2321768512655163e-01 6.7389500436643701e-01  5.6793965638972788e-01 3.2277734373252687e-01 6.7395737657007915e-01  5.6785775545689876e-01 3.2231497027045808e-01 6.7402197703523481e-01  5.6777466896439355e-01 3.2184819657394625e-01 6.7408567876871528e-01  5.6768876083038644e-01 3.2136733948749491e-01 6.7414996636082980e-01  5.6760019585572574e-01 3.2087342266298219e-01 6.7421463627520217e-01  5.6750987287760102e-01 3.2037220591266191e-01 6.7427852651323206e-01  5.6741544423000645e-01 3.1984969185042406e-01 6.7434384882546039e-01  5.6731863854974462e-01 3.1931653120263603e-01 6.7440868267094611e-01  5.6721988145045499e-01 3.1877533562494015e-01 6.7447256310114523e-01  5.6711661498732702e-01 3.1821141474217512e-01 6.7453745774988927e-01  5.6701122112812641e-01 3.1763879663666461e-01 6.7460124400149291e-01  5.6690338828986642e-01 3.1705600058201189e-01 6.7466390513337837e-01  5.6679119584025306e-01 3.1645199361388010e-01 6.7472688568873385e-01  5.6667615103726399e-01 3.1583597663761248e-01 6.7478862536689455e-01  5.6655787848022698e-01 3.1520591098102957e-01 6.7484928931958144e-01  5.6643647129750962e-01 3.1456256488929896e-01 6.7490859295415717e-01  5.6631151184637929e-01 3.1390395176964758e-01 6.7496654196090244e-01  5.6618254188308470e-01 3.1322766352470344e-01 6.7502325661887475e-01  5.6605111647399609e-01 3.1254280715594412e-01 6.7507743970131640e-01  5.6591453124965740e-01 3.1183460078326919e-01 6.7513048932022957e-01  5.6577339976135388e-01 3.1110682463381634e-01 6.7518173275781745e-01  5.6562965340366644e-01 3.1037040328489224e-01 6.7522981332145082e-01  5.6548246550670500e-01 3.0962126386082928e-01 6.7527483511787800e-01  5.6533026235298767e-01 3.0885091966695349e-01 6.7531747024349742e-01  5.6517393358022594e-01 3.0806471988711598e-01 6.7535683522031742e-01  5.6501397305378209e-01 3.0726581796825914e-01 6.7539232896259771e-01  5.6484960310719001e-01 3.0645017760724674e-01 6.7542416482180945e-01  5.6467786037436374e-01 3.0560309950664760e-01 6.7545263467001526e-01  5.6450182864929854e-01 3.0474056008927591e-01 6.7547676093814579e-01  5.6432315778963704e-01 3.0387207842916836e-01 6.7549528256062985e-01  5.6414049442099301e-01 3.0299100639677568e-01 6.7550837205173342e-01  5.6394983446020019e-01 3.0207698106721098e-01 6.7551669838738337e-01  5.6375434125076751e-01 3.0114659428600832e-01 6.7551916073964979e-01  5.6355442364939490e-01 3.0020284009274661e-01 6.7551495733136413e-01  5.6334790740566187e-01 2.9923524971918458e-01 6.7550405178755446e-01  5.6313685437052396e-01 2.9825437148819867e-01 6.7548586678935219e-01  5.6291990510683354e-01 2.9725407837826795e-01 6.7545997659202961e-01  5.6269635935570794e-01 2.9623154793467549e-01 6.7542590684482451e-01  5.6246700779533687e-01 2.9519123709082173e-01 6.7538307715438772e-01  5.6223163301648571e-01 2.9413267500695967e-01 6.7533098712611617e-01  5.6199005946437741e-01 2.9305564803060768e-01 6.7526905376391011e-01  5.6174163625266604e-01 2.9195768455548221e-01 6.7519665165366738e-01  5.6122372167232693e-01 2.8969935816395104e-01 6.7501781339412192e-01  5.6095443365092656e-01 2.8854128561303322e-01 6.7491017844497436e-01  5.6067739999485844e-01 2.8736097992347714e-01 6.7478925122794586e-01  5.6039341785879726e-01 2.8616285257103335e-01 6.7465460682894596e-01  5.6010185221338760e-01 2.8494482796279919e-01 6.7450531341866671e-01  5.5980223307692034e-01 2.8370541648729369e-01 6.7434056000872267e-01  5.5949543316941708e-01 2.8244947381455821e-01 6.7415985741422102e-01  5.5918108384593723e-01 2.8117607391398314e-01 6.7396241468362450e-01  5.5885730450407656e-01 2.7987797510823981e-01 6.7374639538826753e-01  5.5852688458039590e-01 2.7856823927484814e-01 6.7351254054984300e-01  5.5818317702969866e-01 2.7721909456362320e-01 6.7325607574948099e-01  5.5783304880749529e-01 2.7586051671228445e-01 6.7298051009124527e-01  5.5747507363275561e-01 2.7448806104883872e-01 6.7268360229545576e-01  5.5710665542013993e-01 2.7309148240528675e-01 6.7236300701686258e-01  5.5672895087483809e-01 2.7167638832326180e-01 6.7201860597942453e-01  5.5634381966103730e-01 2.7025197125469641e-01 6.7165059892680645e-01  5.5594624925122815e-01 2.6879869480862678e-01 6.7125424480174345e-01  5.5553950267316510e-01 2.6733075144325674e-01 6.7083111294993747e-01  5.5512263958534924e-01 2.6584545258111408e-01 6.7037927769979433e-01  5.5469702094138773e-01 2.6434908943899404e-01 6.6989921559432586e-01  5.5426103446865516e-01 2.6283696773564552e-01 6.6938799922723313e-01  5.5381116432842259e-01 2.6129651994412928e-01 6.6884108838322431e-01  5.5335181364756048e-01 2.5974632453845253e-01 6.6826146950326626e-01  5.5288209621212359e-01 2.5818369706934713e-01 6.6764736155318138e-01  5.5240250974051119e-01 2.5661215617437833e-01 6.6699797256661020e-01  5.5191099521742970e-01 2.5502498469958368e-01 6.6630988087461696e-01  5.5141003570642644e-01 2.5343298803907555e-01 6.6558469621391825e-01  5.5089467589600305e-01 2.5181983298267085e-01 6.6481477728900951e-01  5.5036856624073272e-01 2.5019933568996655e-01 6.6400379086678762e-01  5.4983423838767786e-01 2.4858170083070322e-01 6.6315385342959199e-01  5.4928686699040852e-01 2.4695248628731920e-01 6.6225667167783842e-01  5.4872599092085561e-01 2.4531049335295549e-01 6.6131065500066222e-01  5.4815569368988792e-01 2.4367234711931568e-01 6.6031973350730711e-01  5.4757332340769171e-01 2.4202996208356606e-01 6.5927892897338825e-01  5.4697973847499926e-01 2.4038740759914295e-01 6.5818827118468215e-01  5.4637544511327629e-01 2.3874809013088094e-01 6.5704712842842339e-01  5.4576215893320490e-01 2.3711963286941642e-01 6.5585690660730367e-01  5.4513431931895562e-01 2.3548543436294017e-01 6.5460662496177147e-01  5.4449866057307450e-01 2.3386799801716004e-01 6.5330716084310614e-01  5.4385228127894125e-01 2.3226049792916922e-01 6.5195147547138821e-01  5.4319364931401837e-01 2.3065923876922570e-01 6.5053563299445616e-01  5.4252702791988849e-01 2.2907937854233856e-01 6.4906612596794899e-01  5.4185308921504338e-01 2.2752536542354027e-01 6.4754258002771770e-01  5.4116808956146834e-01 2.2598417983270813e-01 6.4595811108842283e-01  5.4047772325739762e-01 2.2447798489542267e-01 6.4432112748273840e-01  5.3977672841578350e-01 2.2299179802017499e-01 6.4262015250843851e-01  5.3907121652146572e-01 2.2154366324481822e-01 6.4086763787890422e-01  5.3836172888625866e-01 2.2013817181005568e-01 6.3906306497958343e-01  5.3764488093671670e-01 2.1876622368822976e-01 6.3719855935214642e-01  5.3692562106012653e-01 2.1744379872738126e-01 6.3528393361106195e-01  5.3620076736592226e-01 2.1616352811661138e-01 6.3331108047069840e-01  5.3547766447834222e-01 2.1494597890393355e-01 6.3129703998926878e-01  5.3475827583764290e-01 2.1379842234205526e-01 6.2924569763643068e-01  5.3403562832325091e-01 2.1270325180489252e-01 6.2714000297317474e-01  5.3331714896476035e-01 2.1168017904071890e-01 6.2499833105142300e-01  5.3260662444068241e-01 2.1074276922416604e-01 6.2282892808452528e-01  5.3190027924150185e-01 2.0988018842612766e-01 6.2062323106928130e-01  5.3120425742582689e-01 2.0910948901354187e-01 6.1839693782050020e-01  5.3052174799157792e-01 2.0843937901535040e-01 6.1615905753732247e-01  5.2985597302411047e-01 2.0787891118601182e-01 6.1391871336867410e-01  5.2920325274931834e-01 2.0742108729499267e-01 6.1166580353370714e-01  5.2856835859605511e-01 2.0707659495382569e-01 6.0941474671636209e-01  5.2795827930339978e-01 2.0686297556086597e-01 6.0718573682167476e-01  5.2737728677033457e-01 2.0679069093552377e-01 6.0499205783526955e-01  5.2682451233007865e-01 2.0685818877960044e-01 6.0283231991205966e-01  5.2630468183463730e-01 2.0707796740392329e-01 6.0072056807665231e-01  5.2582072350966869e-01 2.0745570386456980e-01 5.9866712638997310e-01  5.2537851133810454e-01 2.0800494074313286e-01 5.9669042933633243e-01  5.2498494186472255e-01 2.0874304683891592e-01 5.9481119684402028e-01  5.2463372169215861e-01 2.0965648484498245e-01 5.9301122589124511e-01  5.2433201004221419e-01 2.1075900161934677e-01 5.9131362656341058e-01  5.2409308393675524e-01 2.1208156465889763e-01 5.8975826150086308e-01  5.2391832365367508e-01 2.1362911738407359e-01 5.8834862677610478e-01  5.2380308506964235e-01 2.1539072876123486e-01 5.8707041255230530e-01  5.2375347503866632e-01 2.1737888307923772e-01 5.8594171481763335e-01  5.2377832203190222e-01 2.1961644403491865e-01 5.8498625239740965e-01  5.2387576697247884e-01 2.2209910617016332e-01 5.8419623858401559e-01  5.2404997242771389e-01 2.2483787412137093e-01 5.8358048128528694e-01  5.2430211987945707e-01 2.2783649648410736e-01 5.8313822372559510e-01  5.2463230538401229e-01 2.3109630314539886e-01 5.8286473863775967e-01  5.2504375774989864e-01 2.3462639184074707e-01 5.8276333637768651e-01  5.2553524273407382e-01 2.3842711104652961e-01 5.8282251989669487e-01  5.2610461561298805e-01 2.4249588945723738e-01 5.8302791618039640e-01  5.2674959982957392e-01 2.4683080033394661e-01 5.8336376149079705e-01  5.2746683761242030e-01 2.5142667543919012e-01 5.8381102497253978e-01  5.2825192847796454e-01 2.5627684483394031e-01 5.8434714487454653e-01  5.2909961734937594e-01 2.6137179790854342e-01 5.8494752815289619e-01  5.3000396677788264e-01 2.6670069625528431e-01 5.8558589213621193e-01  5.3095724202435235e-01 2.7224755535354284e-01 5.8623219473470967e-01  5.3195143002636047e-01 2.7799494494598814e-01 5.8685704384833326e-01  5.3297853148067820e-01 2.8392492387034035e-01 5.8743257391028803e-01  5.3402919033283835e-01 2.9001466199873882e-01 5.8792979199374096e-01  5.3509521744645960e-01 2.9624371697466623e-01 5.8832449861107794e-01  5.3616686838023775e-01 3.0258546878587456e-01 5.8859179629187697e-01  5.3723523894232750e-01 3.0901452881801800e-01 5.8871135217306303e-01  5.3829190072000876e-01 3.1550481312933792e-01 5.8866675476916497e-01  5.3932776952139205e-01 3.2202667039343502e-01 5.8844351170940312e-01  5.4033344082155810e-01 3.2854482126445061e-01 5.8803144471045388e-01  5.4130755046214007e-01 3.3505319168795344e-01 5.8743259854634999e-01  5.4224585056941055e-01 3.4153528746637130e-01 5.8664635216272598e-01  5.4313618313639456e-01 3.4793881914371771e-01 5.8566723097987261e-01  5.4397608119104968e-01 3.5424956972152793e-01 5.8450283146162718e-01  5.4475875738947765e-01 3.6042877476133262e-01 5.8316096517433558e-01  5.4549111179976695e-01 3.6649858336498886e-01 5.8165836142071126e-01  5.4618161002297494e-01 3.7248574996508443e-01 5.8001241640155887e-01  5.4678228452892075e-01 3.7817377619257370e-01 5.7821017621517901e-01  5.4733890297510757e-01 3.8374165207745226e-01 5.7629709534012408e-01  5.4783772864842084e-01 3.8912099794011251e-01 5.7427788914512901e-01  5.4828844648237662e-01 3.9434254790461243e-01 5.7216971253158111e-01  5.4868753363745659e-01 3.9938303863251479e-01 5.6998317342859162e-01  5.4902561271392980e-01 4.0417072818770478e-01 5.6774181798449186e-01  5.4931706540579472e-01 4.0876952787578730e-01 5.6545459289828781e-01  5.4956462466440126e-01 4.1317950682258681e-01 5.6313427903777413e-01  5.4976689969921477e-01 4.1737498431789660e-01 5.6079863039479250e-01  5.4992774937942035e-01 4.2136491757993783e-01 5.5845783734727972e-01  5.5005187664453759e-01 4.2516179718459574e-01 5.5612118698029966e-01  5.5014023767178066e-01 4.2875351798094657e-01 5.5380359693271464e-01  5.5019847077357065e-01 4.3216186043113747e-01 5.5150977624349051e-01  5.5023049694048098e-01 4.3540595946032612e-01 5.4924107873332906e-01  5.5023105509447845e-01 4.3841623549288894e-01 5.4703284168412436e-01  5.5021640873999722e-01 4.4132066796019753e-01 5.4484549038521413e-01  5.5017302360764664e-01 4.4396650190696313e-01 5.4274933682434678e-01  5.5011854998980492e-01 4.4651236371499531e-01 5.4068552136821091e-01  5.5004875854945401e-01 4.4889573369060637e-01 5.3868752586634128e-01  5.4996718274082068e-01 4.5113591556829002e-01 5.3675336026424969e-01  5.4987423489728793e-01 4.5321691819266302e-01 5.3489726796016401e-01  5.4977587006811046e-01 4.5520157533043532e-01 5.3309196356131816e-01  5.4966587537351441e-01 4.5695402485121706e-01 5.3142012081556955e-01  5.4955631411883210e-01 4.5865835826718571e-01 5.2978299842690346e-01  5.4944378900391899e-01 4.6023303608425115e-01 5.2823140988721673e-01  5.4921843481013344e-01 4.6305328707663268e-01 5.2536920676683219e-01  5.4910854695819644e-01 4.6431658461889280e-01 5.2405552407484768e-01  5.4900192666128733e-01 4.6547677411261595e-01 5.2282910516553038e-01  5.4889975970708937e-01 4.6652924520730116e-01 5.2169763597924190e-01  5.4880308664723609e-01 4.6748408351712456e-01 5.2065717256018007e-01  5.4871328350667925e-01 4.6840533348369623e-01 5.1966369604625795e-01  5.4863107759791141e-01 4.6919216055314822e-01 5.1879652435194767e-01  5.4855714432391767e-01 4.6995468849403049e-01 5.1797425324127189e-01  5.4849208899782764e-01 4.7060350516289468e-01 5.1726719573020208e-01  5.4843644066744224e-01 4.7119446141633214e-01 5.1663462096354951e-01  5.4839088786391932e-01 4.7172161112580852e-01 5.1608349512047047e-01  5.4835607290790012e-01 4.7217838598703255e-01 5.1562103184119135e-01  5.4833201834945144e-01 4.7257141387138341e-01 5.1524237202276135e-01  5.4831931754640517e-01 4.7291183320614949e-01 5.1494100074349414e-01  5.4831807101617835e-01 4.7319741622500561e-01 5.1471901414031163e-01  5.4832874955048305e-01 4.7341051585102301e-01 5.1459148774787999e-01  5.4835111293249406e-01 4.7357506373965963e-01 5.1453932444674944e-01  5.4838577379877929e-01 4.7367142477851393e-01 5.1457956372237501e-01  5.4843268667199563e-01 4.7369276932099852e-01 5.1471725337733221e-01  5.4849103359549611e-01 4.7369137349629997e-01 5.1490963663491174e-01  5.4856127737