<?xml version="1.0"?>
<VTKFile type="UnstructuredGrid"  version="0.1"  >
<UnstructuredGrid>
<Piece  NumberOfPoints="4940" NumberOfCells="9650">
<Points>
<DataArray  type="Float64"  NumberOfComponents="3"  format="ascii">500 250 0  0 250 0  250 500 0  250 0 0  256.8885856082646 499.9050767557906 0  263.7719401218049 499.6203791065173 0  270.6448364229772 499.1461232471188 0  277.5020553257866 498.4826693209355 0  284.3383895508592 497.6305211460281 0  291.1486476865662 496.5903258312597 0  297.9276581259182 495.3628732847843 0  304.6702729675493 493.9490956196674 0  311.3713719748657 492.3500664368026 0  318.0258664141369 490.5670000199653 0  324.6287029687753 488.6012504015818 0  331.1748675330201 486.4543103455647 0  337.6593890460416 484.1278102064655 0  344.0773432429536 481.6235166997244 0  350.4238564271474 478.9433315480048 0  356.694109139292 476.0892900492477 0  362.88333985546 473.0635595140469 0  368.9868485575419 469.8684376402048 0  375.0000003153078 466.5063507640667 0  380.9182288257928 462.9798520074548 0  386.7370398729688 459.2916193419558 0  392.4520147244077 455.444453565817 0  398.0588135356345 451.4412761437442 0  403.5531785622926 447.285127045646 0  408.9309374414144 442.9791624087773 0  414.1880064015299 438.5266521049243 0  419.3203932989752 433.9309773069245 0  424.324200661095 429.1956279150535 0  429.1956286596235 424.3241998957182 0  433.9309780058756 419.3203925397119 0  438.5266527445345 414.1880056671062 0  442.9791630130591 408.9309367076756 0  447.2851276060475 403.5531778422888 0  451.4412766621026 398.0588128303826 0  455.4444540361634 392.4520140460735 0  459.2916197786263 386.7370392045948 0  462.9798524073514 380.9182281752347 0  466.5063511234856 374.9999996927758 0  469.8684379657123 368.9868479560565 0  473.0635598144817 362.8833392617846 0  476.0892903190255 356.6941085676214 0  478.9433317963513 350.4238558609745 0  481.6235169154735 344.0773427117675 0  484.12781039012 337.6593885555221 0  486.4543105028062 331.1748670749914 0  488.601250531677 324.6287025528375 0  490.5670001317469 318.0258660188321 0  492.3500665291326 311.3713716102628 0  493.949095695951 304.6702726271575 0  495.3628733416623 297.9276578347343 0  496.5903258712341 291.1486474470129 0  497.6305211749058 284.3383893426084 0  498.4826693388848 277.502055163614 0  499.1461232580606 270.6448362909296 0  499.6203791109319 263.7719400417897 0  499.9050767571306 256.8885855596534 0  499.9050767559877 243.1114143988867 0  499.6203791069493 236.2280598860241 0  499.1461232485393 229.3551635941651 0  498.4826693235677 222.4979446979962 0  497.6305211491849 215.6616104719064 0  496.5903258357701 208.8513523404629 0  495.3628732906988 202.0723419043604 0  493.9490956264813 195.3297270628552 0  492.3500664487791 188.6286280724281 0  490.5670000344809 181.9741336371959 0  488.6012504175981 175.3712970824318 0  486.4543103623226 168.8251325157939 0  484.1278102222298 162.3406109960628 0  481.6235167152198 155.9226567951971 0  478.9433315621651 149.5761436051346 0  476.0892900516498 143.3058908657982 0  473.063559513628 137.1166601437124 0  469.8684376406648 131.0131514433083 0  466.5063507675389 124.9999996907064 0  462.9798520124137 119.0817711822745 0  459.2916193464549 113.2629601339176 0  455.4444535642773 107.5479852733717 0  451.4412761528674 101.9411864767781 0  447.2851270583545 96.44682145403524 0  442.9791624165781 91.06906256805769 0  438.5266521117469 85.81199360630404 0  433.9309773156125 80.67960671046254 0  429.1956279150353 75.67579933888632 0  424.3241998888952 70.80437133373906 0  419.3203925223282 66.06902197812161 0  414.1880056411937 61.47334723289828 0  408.9309366751728 57.0208369601728 0  403.5531778009394 52.71487236176898 0  398.058812796452 48.55872331295853 0  392.4520140187753 44.55554594490843 0  386.7370391799677 40.70838020528396 0  380.9182281475119 37.02014757560744 0  374.9999996718656 33.49364886444181 0  368.9868479340393 30.13156202237255 0  362.8833392380029 26.93644017348339 0  356.6941085456942 23.91070967062674 0  350.4238558420009 21.0566681953261 0  344.0773426899492 18.37648307566465 0  337.6593885328982 15.87218960140942 0  331.1748670549786 13.54568949032341 0  324.6287025315056 11.39874946165088 0  318.0258660010876 9.432999863235466 0  311.3713716017894 7.649933468721599 0  304.6702726190621 6.050904302234756 0  297.9276578269805 4.637126656823085 0  291.148647441857 3.409674127905504 0  284.3383893425031 2.369478825079682 0  277.502055159398 1.517330660648639 0  270.6448362875833 0.853876741662134 0  263.7719400401456 0.3796208889774277 0  256.8885855592052 0.09492324285704967 0  243.1114143979462 0.09492324403817065 0  236.2280598850882 0.3796208931023841 0  229.3551635938215 0.8538767514891958 0  222.4979446968584 1.517330676558146 0  215.6616104703111 2.369478851036291 0  208.8513523382973 3.409674164591252 0  202.0723419066374 4.637126708856528 0  195.3297270659513 6.050904372824903 0  188.628628074828 7.649933550613184 0  181.9741336377093 9.432999965373938 0  175.3712970793675 11.39874958336037 0  168.8251325057572 13.54568964112298 0  162.340610986655 15.87218978129263 0  155.9226567874317 18.37648328793418 0  149.576143602509 21.05666843898663 0  143.3058908718157 23.91070994551046 0  137.1166601505524 26.93644048291054 0  131.0131514451933 30.13156235831508 0  124.9999996848412 33.49364923584736 0  119.0817711715717 37.0201479941652 0  113.2629601211624 40.70838066187849 0  107.5479852622251 44.55554644345162 0  101.9411864693332 48.55872385260452 0  96.44682143286516 52.71487295812284 0  91.06906254351222 57.02083760363669 0  85.81199358272519 61.4733479087879 0  80.67960667988106 66.06902271253972 0  75.67579930062769 70.80437212218331 0  70.80437129287643 75.67580015310926 0  66.06902193673014 80.67960752263491 0  61.47334718684866 85.81199441168215 0  57.02083692524275 91.0690633672404 0  52.71487232786438 96.44682224262129 0  48.55872328070024 101.941187247437 0  44.55554591578033 107.5479860232332 0  40.7083801742321 113.2629608675606 0  37.02014754791168 119.0817718975441 0  33.49364883372994 125.000000381329 0  30.13156199866361 131.0131521097709 0  26.9364401549829 137.1166607985551 0  23.91070965524918 143.3058914868915 0  21.05666818346614 149.576144185037 0  18.37648306853811 155.9226573275967 0  15.8721895918909 162.3406114925245 0  13.54568948170046 168.8251329701392 0  11.39874945301878 175.3712974960928 0  9.432999857087736 181.9741340206533 0  7.649933466342702 188.6286284076045 0  6.050904301250966 195.3297273853278 0  4.637126656808988 202.0723421730917 0  3.409674127767772 208.8513525589684 0  2.369478824521138 215.6616106615248 0  1.517330660909465 222.4979448382452 0  0.8538767414496533 229.355163714981 0  0.3796208887135322 236.2280599646376 0  0.09492324266324204 243.1114144478261 0  0.0949232442452228 256.8885856095658 0  0.3796208935834784 263.7719401236316 0  0.8538767530323526 270.6448364248016 0  1.517330679476544 277.5020553295092 0  2.369478854618649 284.3383895555228 0  3.409674170191892 291.1486476952655 0  4.6371267162381 297.9276581311522 0  6.050904381420935 304.6702729724059 0  7.649933562385399 311.3713719716595 0  9.43299997979841 318.0258664133013 0  11.3987495994252 324.6287029719946 0  13.54568965885832 331.174867545904 0  15.87218979367188 337.6593890464085 0  18.37648329843151 344.0773432384132 0  21.05666844777872 350.423856417535 0  23.91070995156048 356.6941091410045 0  26.93644048988043 362.8833398632205 0  30.13156235982007 368.9868485575877 0  33.49364924138357 375.0000003247478 0  37.0201480006036 380.9182288389023 0  40.70838066758398 386.7370398875706 0  44.55554644477201 392.4520147396792 0  48.55872386086904 398.0588135419111 0  52.71487295981296 403.5531785693063 0  57.02083760525949 408.9309374584583 0  61.47334790862246 414.1880064170849 0  66.06902271205095 419.320393319588 0  70.80437211216579 424.3242006890749 0  75.67580013809859 429.195628692521 0  80.6796075127923 433.930978054209 0  85.81199439754931 438.5266528008431 0  91.06906334717917 442.9791630582355 0  96.44682221438322 447.2851276501571 0  101.9411872243843 451.441276702356 0  107.5479859945825 455.4444540643537 0  113.2629608446994 459.2916198108319 0  119.0817718768376 462.9798524393601 0  125.0000003647644 466.5063511567065 0  131.0131521012763 469.8684379967393 0  137.1166607840049 473.0635598376539 0  143.3058914748804 476.0892903390826 0  149.5761441732679 478.9433318113714 0  155.9226573130112 481.6235169255377 0  162.3406114779862 484.1278104026658 0  168.8251329570439 486.4543105138039 0  175.3712974805475 488.601250542119 0  181.9741340135204 490.5670001408953 0  188.6286284005059 492.3500665318597 0  195.3297273788229 493.9490956972913 0  202.0723421640089 495.3628733414168 0  208.8513525529672 496.5903258712308 0  215.6616106544547 497.6305211744985 0  222.4979448327038 498.4826693384772 0  229.3551637102845 499.1461232581612 0  236.2280599621369 499.6203791111485 0  243.1114144470173 499.9050767573145 0  155.2373389820306 474.8197567317462 0  25.36256300907667 153.9152755065208 0  432.3709625126712 412.6214396304305 0  6.013151705810699 246.637913163471 0  246.6379131630491 493.986848294322 0  338.6995838441862 22.68244767887072 0  477.3175523131281 338.6995838660569 0  493.9868482700757 246.6379131399102 0  246.6201155078769 6.218451882810491 0  417.6179310263282 72.7156044707053 0  102.2232990934413 445.0100869616822 0  63.66330858966404 92.20354579482142 0  391.3105220491464 50.73522820883105 0  72.79295043967942 418.0702734974704 0  448.290574428537 108.25674339002 0  402.4604651193511 440.7462829841712 0  97.55317348421397 59.11376320116034 0  136.7376477664901 33.58246472647134 0  363.3288394375288 465.6947312928271 0  44.0678766556007 381.0860953771871 0  469.6905266180034 142.3890690100806 0  22.68244791668644 338.6995843487432 0  338.699584349159 477.317552078365 0  173.389488083762 18.6681884918202 0  483.4809734778481 179.7121987795732 0  13.50237455842738 306.4709525540879 0  305.9825168523021 487.24416992
[...]
<PointData  Vectors="f_12"> 
<DataArray  type="Float64"  Name="f_12"  NumberOfComponents="3" format="ascii">4.5567068096987606e-01 1.3959610107742951e-01 1.2691472945079108e-01  4.5641260301859243e-01 1.2746617436610985e-01 1.3650444258251646e-01  4.5527195634887763e-01 1.5662351860721374e-01 1.1693151615081400e-01  4.5820816762627209e-01 1.1187103252346585e-01 1.5366878151244967e-01  4.5527082252667578e-01 1.5681911438008792e-01 1.1683477730396610e-01  4.5526987101201716e-01 1.5699365879801272e-01 1.1674875625716889e-01  4.5526903181391193e-01 1.5715651771335371e-01 1.1666874119320031e-01  4.5526833060055255e-01 1.5730001432679563e-01 1.1659843306754003e-01  4.5526774071027643e-01 1.5742728060777811e-01 1.1653624088257511e-01  4.5526725157424469e-01 1.5753762177482281e-01 1.1648243135190832e-01  4.5526685473014605e-01 1.5763093438062736e-01 1.1643701171514174e-01  4.5526653943252859e-01 1.5770779886279010e-01 1.1639965697819590e-01  4.5526630252455069e-01 1.5776721979647540e-01 1.1637081359300284e-01  4.5526614288536799e-01 1.5780823525954712e-01 1.1635092454280860e-01  4.5526607966109434e-01 1.5782501424541781e-01 1.1634279945972997e-01  4.5526603385619574e-01 1.5783659613160644e-01 1.1633717844975189e-01  4.5526612736122118e-01 1.5781250808381381e-01 1.1634885866067969e-01  4.5526625205510923e-01 1.5778026882814339e-01 1.1636448783293263e-01  4.5526646336059756e-01 1.5772687739524649e-01 1.1639039663335068e-01  4.5526675317518678e-01 1.5765547756686152e-01 1.1642508002084764e-01  4.5526712447438394e-01 1.5756683640313546e-01 1.1646819503994665e-01  4.5526762561995165e-01 1.5745290796248643e-01 1.1652373497482998e-01  4.5526824201140603e-01 1.5731911577083033e-01 1.1658910053947788e-01  4.5526895353077285e-01 1.5717231295367567e-01 1.1666099785984879e-01  4.5526981082840284e-01 1.5700507093180940e-01 1.1674314393206857e-01  4.5527085437579856e-01 1.5681404272225979e-01 1.1683730123663773e-01  4.5527210580728722e-01 1.5659896479493254e-01 1.1694370098689028e-01  4.5527351919549275e-01 1.5637151890909695e-01 1.1705667670469057e-01  4.5527516130367562e-01 1.5612457534952254e-01 1.1717988563388426e-01  4.5527710682294348e-01 1.5585132911387276e-01 1.1731687227040169e-01  4.5527930260056715e-01 1.5556385962929739e-01 1.1746175261271026e-01  4.5528183315488657e-01 1.5525493617182043e-01 1.1761831623186815e-01  4.5528471502846196e-01 1.5492668094860795e-01 1.1778566802508328e-01  4.5528794985814908e-01 1.5458269118238299e-01 1.1796213840639659e-01  4.5529166917283376e-01 1.5421362095152538e-01 1.1815274810609605e-01  4.5529583071784230e-01 1.5382817653720895e-01 1.1835324441050776e-01  4.5530043277746535e-01 1.5342943872089437e-01 1.1856217805244926e-01  4.5530563131643370e-01 1.5300797165818142e-01 1.1878474195583735e-01  4.5531147726091775e-01 1.5256452189523426e-01 1.1902085925046541e-01  4.5531788778147797e-01 1.5210859371978330e-01 1.1926568587477783e-01  4.5532490345032761e-01 1.5164026836569194e-01 1.1951939894588338e-01  4.5533269273661686e-01 1.5115171430783514e-01 1.1978651133267172e-01  4.5534127907833538e-01 1.5064479374768996e-01 1.2006627873775262e-01  4.5535062793872594e-01 1.5012554927003963e-01 1.2035573767484538e-01  4.5536085010583377e-01 1.4959019872229004e-01 1.2065721178566646e-01  4.5537195436011363e-01 1.4904130880045632e-01 1.2096956809875754e-01  4.5538396725973035e-01 1.4848002188605566e-01 1.2129241740057209e-01  4.5539691970010576e-01 1.4790768691877348e-01 1.2162532195047979e-01  4.5541101910622783e-01 1.4731789494849828e-01 1.2197232238198481e-01  4.5542608019154668e-01 1.4672009668767066e-01 1.2232809212957323e-01  4.5544226155959111e-01 1.4611118117394983e-01 1.2269492278215824e-01  4.5545951863958756e-01 1.4549342146800803e-01 1.2307151677850509e-01  4.5547795368227950e-01 1.4486622776813843e-01 1.2345872780610309e-01  4.5549762626928081e-01 1.4422875169992874e-01 1.2385725151281587e-01  4.5551848157239289e-01 1.4358462170933536e-01 1.2426514409398237e-01  4.5554054116439557e-01 1.4293491429619987e-01 1.2468204877311677e-01  4.5556391047024064e-01 1.4227719512084713e-01 1.2510963647674486e-01  4.5558855902478185e-01 1.4161453454746953e-01 1.2554638045082928e-01  4.5561441410875519e-01 1.4094852426522048e-01 1.2599111805545485e-01  4.5564134414173169e-01 1.4028196614993546e-01 1.2644194836947326e-01  4.5570023570211576e-01 1.3892251862783694e-01 1.2738287222353439e-01  4.5573141375482079e-01 1.3824444207692632e-01 1.2786201633386274e-01  4.5576390977218162e-01 1.3756540985744309e-01 1.2834878991327942e-01  4.5579781090845833e-01 1.3688327937546130e-01 1.2884460642679471e-01  4.5583300147799599e-01 1.3620292331143269e-01 1.2934674921153391e-01  4.5586942836696337e-01 1.3552308692429330e-01 1.2985539398073648e-01  4.5590722526237987e-01 1.3484423917525096e-01 1.3037118516653595e-01  4.5594626432764029e-01 1.3416725180694980e-01 1.3089297785066253e-01  4.5598652987679417e-01 1.3349328020680343e-01 1.3142021278025848e-01  4.5602799930109911e-01 1.3282271893554773e-01 1.3195260747403650e-01  4.5607073387498070e-01 1.3215434011314342e-01 1.3249105127526523e-01  4.5611447610943495e-01 1.3149282177093252e-01 1.3303206681794613e-01  4.5615947756090147e-01 1.3083345629947907e-01 1.3357916114293145e-01  4.5620550851985375e-01 1.3018019834763045e-01 1.3412930903624054e-01  4.5625256670373854e-01 1.2953265197506039e-01 1.3468269318979018e-01  4.5630059151091779e-01 1.2889165487543461e-01 1.3523862967930747e-01  4.5634953951175877e-01 1.2825730383017370e-01 1.3579683874881876e-01  4.5639939751685643e-01 1.2762969238039193e-01 1.3635723313188561e-01  4.5645010814437253e-01 1.2700918987659807e-01 1.3691934075263995e-01  4.5650154684187355e-01 1.2639698990760553e-01 1.3748194683902953e-01  4.5655371055650074e-01 1.2579258622055908e-01 1.3804527047277806e-01  4.5660645767658137e-01 1.2519782001254073e-01 1.3860773009685870e-01  4.5665990861552808e-01 1.2461035199777365e-01 1.3917104826127427e-01  4.5671368608088964e-01 1.2403401915229416e-01 1.3973140008078802e-01  4.5676795742520188e-01 1.2346661874979512e-01 1.4029072865723710e-01  4.5682259075689347e-01 1.2290906124712923e-01 1.4084789549054863e-01  4.5687750388419890e-01 1.2236165129540726e-01 1.4140230864336553e-01  4.5693260744786968e-01 1.2182487218684651e-01 1.4195326316447157e-01  4.5698776752852777e-01 1.2129930517208337e-01 1.4249973534248228e-01  4.5704300562832195e-01 1.2078444052677871e-01 1.4304209791560465e-01  4.5709814988474434e-01 1.2028118306927740e-01 1.4357896589080305e-01  4.5715313646509170e-01 1.1978959078580292e-01 1.4410995733572771e-01  4.5720797327934531e-01 1.1930918107524376e-01 1.4463534145690743e-01  4.5726244722586618e-01 1.1884107043495888e-01 1.4515340024492315e-01  4.5731624918362435e-01 1.1838737817892125e-01 1.4566143376611246e-01  4.5736975955752390e-01 1.1794439783624137e-01 1.4616325580990583e-01  4.5742276775217172e-01 1.1751324937397477e-01 1.4665716416802496e-01  4.5747470782577077e-01 1.1709799916907557e-01 1.4713811640247312e-01  4.5752609238342279e-01 1.1669396328290453e-01 1.4761111109378361e-01  4.5757690634713882e-01 1.1630073853156599e-01 1.4807624052396992e-01  4.5762618555820245e-01 1.1592521967921013e-01 1.4852491074099719e-01  4.5767447602828937e-01 1.1556283216678749e-01 1.4896228725264951e-01  4.5772152726407694e-01 1.1521454862431030e-01 1.4938645998498049e-01  4.5776746273349217e-01 1.1487923450902905e-01 1.4979865306977283e-01  4.5781195984622214e-01 1.1455861840352181e-01 1.5019622603107041e-01  4.5785502419749807e-01 1.1425220707665285e-01 1.5057942084785825e-01  4.5789650013078986e-01 1.1396058172703503e-01 1.5094706871318708e-01  4.5793626118838815e-01 1.1368415154221261e-01 1.5129824667245126e-01  4.5797441972030573e-01 1.1342171823400375e-01 1.5163412031513354e-01  4.5801088845411986e-01 1.1317341557956036e-01 1.5195410937794795e-01  4.5804545307089628e-01 1.1294028839625399e-01 1.5225650377511704e-01  4.5807788874349387e-01 1.1272350228688242e-01 1.5253947948244390e-01  4.5810817003595766e-01 1.1252277788404320e-01 1.5280299594341579e-01  4.5813655804513642e-01 1.1233605008874845e-01 1.5304946039057468e-01  4.5816265651100407e-01 1.1216558456768587e-01 1.5327556732323802e-01  4.5818663512679081e-01 1.1200998000639532e-01 1.5348290589243938e-01  4.5822671689069472e-01 1.1175206289400079e-01 1.5382862029723993e-01  4.5824568889065975e-01 1.1163066343355663e-01 1.5399198440890013e-01  4.5825917234357016e-01 1.1154497126191082e-01 1.5410785807439378e-01  4.5827132519282388e-01 1.1146791111686399e-01 1.5421222796252004e-01  4.5828120471040634e-01 1.1140541569913745e-01 1.5429701479034175e-01  4.5828837387280663e-01 1.1136017934996333e-01 1.5435849643124569e-01  4.5829298192787432e-01 1.1133113786806008e-01 1.5439800065934017e-01  4.5829527378015511e-01 1.1131670686726990e-01 1.5441764321351539e-01  4.5829500684924707e-01 1.1131838813588117e-01 1.5441535521984462e-01  4.5829332158391956e-01 1.1132898837151650e-01 1.5440091542173567e-01  4.5828753997829480e-01 1.1136543123815927e-01 1.5435134871874401e-01  4.5827980445523231e-01 1.1141426862774345e-01 1.5428499957375583e-01  4.5826968363420556e-01 1.1147831267828733e-01 1.5419813355614811e-01  4.5825765051388501e-01 1.1155464492235773e-01 1.5409477946787045e-01  4.5824302963002334e-01 1.1164771729586438e-01 1.5396907090878259e-01  4.5822565601260790e-01 1.1175876714747751e-01 1.5381951579702163e-01  4.5820627920683554e-01 1.1188320061794314e-01 1.5365248741089707e-01  4.5818475850459811e-01 1.1202211181511040e-01 1.5346669668056093e-01  4.5816115126501028e-01 1.1217537484998645e-01 1.5326254194269404e-01  4.5813543639603910e-01 1.1234338343539535e-01 1.5303973870607981e-01  4.5810747429826648e-01 1.1252738314832668e-01 1.5279694405353564e-01  4.5807746145041917e-01 1.1272636143039148e-01 1.5253575067279426e-01  4.5804571231214553e-01 1.1293856317743491e-01 1.5225876214151193e-01  4.5801221303891526e-01 1.1316442483878239e-01 1.5196571938365266e-01  4.5797691981319527e-01 1.1340458906463577e-01 1.5165609757343140e-01  4.5793993059344718e-01 1.1365878458837750e-01 1.5133059558994871e-01  4.5790130344463142e-01 1.1392700054565348e-01 1.5098956517557846e-01  4.5786115787145909e-01 1.1420883474878954e-01 1.5063388647930018e-01  4.5781953694744248e-01 1.1450440634645230e-01 1.5026376675144343e-01  4.5777656261759164e-01 1.1481329209692590e-01 1.4988010728942877e-01  4.5773231247812085e-01 1.1513538064752446e-01 1.4948341461173928e-01  4.5768698090527044e-01 1.1546972346836332e-01 1.4907523722049984e-01  4.5764061180609933e-01 1.1581638221719950e-01 1.4865580510551116e-01  4.5759316051552584e-01 1.1617624047352981e-01 1.4822448751256964e-01  4.5754466919577474e-01 1.1654941051241167e-01 1.4778147893092883e-01  4.5749534052675112e-01 1.1693490158656054e-01 1.4732839197247033e-01  4.5744530230872121e-01 1.1733216118154116e-01 1.4686620757287780e-01  4.5739466450349670e-01 1.1774080510929820e-01 1.4639573047803731e-01  4.5734348252224077e-01 1.1816082266845990e-01 1.4591728311340429e-01  4.5729190354995314e-01 1.1859152682444693e-01 1.4543201995436247e-01  4.5723954276855183e-01 1.1903672767222442e-01 1.4493605538746332e-01  4.5718702462441529e-01 1.1949144577912370e-01 1.4443515656358111e-01  4.5713449592302957e-01 1.1995508504647759e-01 1.4393043311916870e-01  4.5708159603171017e-01 1.2043103073906786e-01 1.4341831106212877e-01  4.5702856537719644e-01 1.2091786262957413e-01 1.4290080314640805e-01  4.5697548031541774e-01 1.2141527524868102e-01 1.4237846589269657e-01  4.5692278051973850e-01 1.2191946819272921e-01 1.4185547778052049e-01  4.5686986690325060e-01 1.2243684589467753e-01 1.4132559276783069e-01  4.5681729627896245e-01 1.2296249820638427e-01 1.4079414954105932e-01  4.5676503188211298e-01 1.2349650384777466e-01 1.4026085601445823e-01  4.5671323145653975e-01 1.2403879569347558e-01 1.3972669363384435e-01  4.5666163099376322e-01 1.2459141471513521e-01 1.3918918206792433e-01  4.5661055848863019e-01 1.2515202316875240e-01 1.3865124883252111e-01  4.5656008306215906e-01 1.2571986510134939e-01 1.3811358695369483e-01  4.5651023602259388e-01 1.2629503112688237e-01 1.3757632625444138e-01  4.5646109716751665e-01 1.2687670839158607e-01 1.3704025437601738e-01  4.5636484104033276e-01 1.2806256291714685e-01 1.3596974556304761e-01  4.5631799805183393e-01 1.2866360180474831e-01 1.3543820403072937e-01  4.5627200302383014e-01 1.2927068757734450e-01 1.3490880019939991e-01  4.5622692392548581e-01 1.2988275801403715e-01 1.3438234782279568e-01  4.5618281149036322e-01 1.3049945061409610e-01 1.3385929161674079e-01  4.5613967115681553e-01 1.3112065532900288e-01 1.3333968645621563e-01  4.5609757604446094e-01 1.3174546244431720e-01 1.3282433688100509e-01  4.5605653287724035e-01 1.3237365539000365e-01 1.3231335223878865e-01  4.5601658284792246e-01 1.3300466303705466e-01 1.3180720779989286e-01  4.5597774784419204e-01 1.3363788737888582e-01 1.3130626886815475e-01  4.5594008645727108e-01 1.3427253776320530e-01 1.3081121751834002e-01  4.5590358234615741e-01 1.3490810920559912e-01 1.3032214407382836e-01  4.5586826582068768e-01 1.3554430626350639e-01 1.2983935740675301e-01  4.5583407582423319e-01 1.3618171880535312e-01 1.2936223033324798e-01  4.5580119641570932e-01 1.3681630255207558e-01 1.2889358573699458e-01  4.5576938918205573e-01 1.3745274265447630e-01 1.2842998660548838e-01  4.5573875941261577e-01 1.3808820521933202e-01 1.2797327668317149e-01  4.5570947445353899e-01 1.3871822615956303e-01 1.2752636240318399e-01  4.5568137650263818e-01 1.3934653227745952e-01 1.2708672829181894e-01  4.5565443015244739e-01 1.3997167015766376e-01 1.2665476064611839e-01  4.5562866806648178e-01 1.4059355376736071e-01 1.2623071748444431e-01  4.5560409631135090e-01 1.4121046720453076e-01 1.2581538073830548e-01  4.5558064632324013e-01 1.4182320921192079e-01 1.2540799876482200e-01  4.5555832704648502e-01 1.4243098942071611e-01 1.2500898449867329e-01  4.5553716992749643e-01 1.4303141881273035e-01 1.2461957834954589e-01  4.5551712292017071e-01 1.4362505358972005e-01 1.2423924322575601e-01  4.5549806699607132e-01 1.4421400678648771e-01 1.2386636166257642e-01  4.5548016966038274e-01 1.4479186892633300e-01 1.2350475783297875e-01  4.5546322796493249e-01 1.4536401576236638e-01 1.2315088218205551e-01  4.5544727705813848e-01 1.4592742001717335e-01 1.2280628918364940e-01  4.5543230240298282e-01 1.4648133281105094e-01 1.2247125266737344e-01  4.5541825700829819e-01 1.4702576802254039e-01 1.2214550417164607e-01  4.5540511131320016e-01 1.4756016564634203e-01 1.2182914120885149e-01  4.5539281043060476e-01 1.4808507014585057e-01 1.2152161537475412e-01  4.5538129454309179e-01 1.4860144870794936e-01 1.2122216088321558e-01  4.5537064716627740e-01 1.4910328942529583e-01 1.2093398779787264e-01  4.5536078709171107e-01 1.4959232620501864e-01 1.2065586733620923e-01  4.5535153940856782e-01 1.5007555824712257e-01 1.2038363706672615e-01  4.5534303602573611e-01 1.5054388387638462e-01 1.2012219600831457e-01  4.5533523148397198e-01 1.5099756995088362e-01 1.1987118461355070e-01  4.5532801439987908e-01 1.5144060165297224e-01 1.1962816891507501e-01  4.5532138948301032e-01 1.5187019665458190e-01 1.1939445430214239e-01  4.5531529958350830e-01 1.5228848354044439e-01 1.1916876884756880e-01  4.5530977323720762e-01 1.5268980092216408e-01 1.1895386413785189e-01  4.5530470988919053e-01 1.5308006929827703e-01 1.1874649221657810e-01  4.5530011544222831e-01 1.5345534679975889e-01 1.1854849588246633e-01  4.5529593582794414e-01 1.5381778561965709e-01 1.1835859649428333e-01  4.5529213343819119e-01 1.5416817159073246e-01 1.1817623703942269e-01  4.5528875147023862e-01 1.5450023415977363e-01 1.1800456281332450e-01  4.5528571725660572e-01 1.5481676360549229e-01 1.1784188364272237e-01  4.5528296082758324e-01 1.5512287623652490e-01 1.1768547134071372e-01  4.5528052313422862e-01 1.5541140650499236e-01 1.1753886299153926e-01  4.5527837038964192e-01 1.5568315519875733e-01 1.1740151828309768e-01  4.5527645216575241e-01 1.5594084794711346e-01 1.1727190081683031e-01  4.5527475426857689e-01 1.5618397763873923e-01 1.1715018400653053e-01  4.5527327745769308e-01 1.5640917247115271e-01 1.1703793050436606e-01  4.5531880701442445e-01 1.5204508158951108e-01 1.1929991412620079e-01  4.5716771947046142e-01 1.1966089086194148e-01 1.4425006802946228e-01  4.5529048302191760e-01 1.5432840117829616e-01 1.1809332614490210e-01  4.5643639836755528e-01 1.2717511265464393e-01 1.3676816582839627e-01  4.5527294652163613e-01 1.5646211434891136e-01 1.1701163049521590e-01  4.5774105485687377e-01 1.1507153714247279e-01 1.4956188148430516e-01  4.5539124650011414e-01 1.4815491014996288e-01 1.2148112085862654e-01  4.5568583602100093e-01 1.3924408202629962e-01 1.2715778600481414e-01  4.5821310864771592e-01 1.1183926252435049e-01 1.5371139278267285e-01  4.5701459637168118e-01 1.2104799013675324e-01 1.4276369365901401e-01  4.5539995214668749e-01 1.4777756853194607e-01 1.2170143680957746e-01  4.5770636607595544e-01 1.1532626762842851e-01 1.4924998575789045e-01  4.5729339518102874e-01 1.1857915303544435e-01 1.4544603152340174e-01  4.5548918230805391e-01 1.4449790807392832e-01 1.2368822529248392e-01  4.5663336102786917e-01 1.2490035987708265e-01 1.3889204222441057e-01  4.5527460248841528e-01 1.5620713380763770e-01 1.1713865129269559e-01  4.5799253663784373e-01 1.1329807275114832e-01 1.5179320318028827e-01  4.5819134385871868e-01 1.1197955434607368e-01 1.5352357149418183e-01  4.5526765946872272e-01 1.5744546376706930e-01 1.1652737773806170e-01  4.5564046011006532e-01 1.4030636448711462e-01 1.2642598161297602e-01  4.5632619316481071e-01 1.2855771550019621e-01 1.3553155039738080e-01  4.5585165119224630e-01 1.3585093255670341e-01 1.2960892455072584e-01  4.5526640272535118e-01 1.5774303078356530e-01 1.1638258106099937e-01  4.5827786551819383e-01 1.1142653048522816e-01 1.5426836364389754e-01  4.5605425557617485e-01 1.3240957584282839e-01 1.3228455501531289e-01  4.5603675537825766e-01 1.3268375528104090e-01 1.3206381673864903e-01  4.5526669455336738e-01 1.5767098773455476e-01 1.1641757491347812e-01  4.5529084826071914e-01 1.5429195479121532e-01 1.1811212405996564e-01  4.5684240032227574e-01 1.2271023350589685e-01 1.4104847061595602e-01  4.5798853417525126e-01 1.1332539054085788e-01 1.5175805992430189e-01  4.5548859534381198e-01 1.4451760219198279e-01 1.2367605781708703e-01  4.5532071396999296e-01 1.5191692126711875e-01 1.1936929813852905e-01  4.5828710793744332e-01 1.1136818654548673e-01 1.5434763466774837e-01  4.5589138144335156e-01 1.3512605082199147e-01 1.3015622318973405e-01  4.5620486737202709e-01 1.3018899379896917e-01 1.3412176445064666e-01  4.5526829567698018e-01 1.5730862140532104e-01 1.1659425951750908e-01  4.5749651411921677e-01 1.1692594665163916e-01 1.4733909317135496e-01  4.5741760118192198e-01 1.1755495021938259e-01 1.4660915469987673e-01  4.5527979037766331e-01 1.5550251398900733e-01 1.1749276736818877e-01  4.5534810801682984e-01 1.5026104683234862e-01 1.2027976536175809e-01  4.5662987446867648e-01 1.2493842996315781e-01 1.3885538821801197e-01  4.5811571857870548e-01 1.1247303415040993e-01 1.5286857213607991e-01  4.5557429769591018e-01 1.4199486487089497e-01 1.2529510611644573e-01  4.5527076127094057e-01 1.5683155658162698e-01 1.1682869094393467e-01  4.5543501647449969e-01 1.4638004678838346e-01 1.2253242746426642e-01  4.5826239750614245e-01 1.1152454711590817e-01 1.5413554860665993e-01  4.5787158100262515e-01 1.1413542529354009e-01 1.5072633416200759e-01  4.5578183963746399e-01 1.3720094799845597e-01 1.2861271248372094e-01  4.5685132833899034e-01 1.2262118053698105e-01 1.4113864427139650e-01  4.5530282024669183e-01 1.5323241690847619e-01 1.1866599232571544e-01  4.5530378230127927e-01 1.5315431055301973e-01 1.1870724741535020e-01  4.5554732948430093e-01 1.4273990474019380e-01 1.2480804228910883e-01  4.5808820272328660e-01 1.1265502107775002e-01 1.5262928276734844e-01  4.5572270080036154e-01 1.3843072503736645e-01 1.2772956798154905e-01  4.5700049968975792e-01 1.2117980775350178e-01 1.4262509184300609e-01  4.5534663869790026e-01 1.5034365835420385e-01 1.2023383117137058e-01  4.5544051737