<?xml version="1.0"?>
<VTKFile type="UnstructuredGrid"  version="0.1"  >
<UnstructuredGrid>
<Piece  NumberOfPoints="4940" NumberOfCells="9650">
<Points>
<DataArray  type="Float64"  NumberOfComponents="3"  format="ascii">500 250 0  0 250 0  250 500 0  250 0 0  256.8885856082646 499.9050767557906 0  263.7719401218049 499.6203791065173 0  270.6448364229772 499.1461232471188 0  277.5020553257866 498.4826693209355 0  284.3383895508592 497.6305211460281 0  291.1486476865662 496.5903258312597 0  297.9276581259182 495.3628732847843 0  304.6702729675493 493.9490956196674 0  311.3713719748657 492.3500664368026 0  318.0258664141369 490.5670000199653 0  324.6287029687753 488.6012504015818 0  331.1748675330201 486.4543103455647 0  337.6593890460416 484.1278102064655 0  344.0773432429536 481.6235166997244 0  350.4238564271474 478.9433315480048 0  356.694109139292 476.0892900492477 0  362.88333985546 473.0635595140469 0  368.9868485575419 469.8684376402048 0  375.0000003153078 466.5063507640667 0  380.9182288257928 462.9798520074548 0  386.7370398729688 459.2916193419558 0  392.4520147244077 455.444453565817 0  398.0588135356345 451.4412761437442 0  403.5531785622926 447.285127045646 0  408.9309374414144 442.9791624087773 0  414.1880064015299 438.5266521049243 0  419.3203932989752 433.9309773069245 0  424.324200661095 429.1956279150535 0  429.1956286596235 424.3241998957182 0  433.9309780058756 419.3203925397119 0  438.5266527445345 414.1880056671062 0  442.9791630130591 408.9309367076756 0  447.2851276060475 403.5531778422888 0  451.4412766621026 398.0588128303826 0  455.4444540361634 392.4520140460735 0  459.2916197786263 386.7370392045948 0  462.9798524073514 380.9182281752347 0  466.5063511234856 374.9999996927758 0  469.8684379657123 368.9868479560565 0  473.0635598144817 362.8833392617846 0  476.0892903190255 356.6941085676214 0  478.9433317963513 350.4238558609745 0  481.6235169154735 344.0773427117675 0  484.12781039012 337.6593885555221 0  486.4543105028062 331.1748670749914 0  488.601250531677 324.6287025528375 0  490.5670001317469 318.0258660188321 0  492.3500665291326 311.3713716102628 0  493.949095695951 304.6702726271575 0  495.3628733416623 297.9276578347343 0  496.5903258712341 291.1486474470129 0  497.6305211749058 284.3383893426084 0  498.4826693388848 277.502055163614 0  499.1461232580606 270.6448362909296 0  499.6203791109319 263.7719400417897 0  499.9050767571306 256.8885855596534 0  499.9050767559877 243.1114143988867 0  499.6203791069493 236.2280598860241 0  499.1461232485393 229.3551635941651 0  498.4826693235677 222.4979446979962 0  497.6305211491849 215.6616104719064 0  496.5903258357701 208.8513523404629 0  495.3628732906988 202.0723419043604 0  493.9490956264813 195.3297270628552 0  492.3500664487791 188.6286280724281 0  490.5670000344809 181.9741336371959 0  488.6012504175981 175.3712970824318 0  486.4543103623226 168.8251325157939 0  484.1278102222298 162.3406109960628 0  481.6235167152198 155.9226567951971 0  478.9433315621651 149.5761436051346 0  476.0892900516498 143.3058908657982 0  473.063559513628 137.1166601437124 0  469.8684376406648 131.0131514433083 0  466.5063507675389 124.9999996907064 0  462.9798520124137 119.0817711822745 0  459.2916193464549 113.2629601339176 0  455.4444535642773 107.5479852733717 0  451.4412761528674 101.9411864767781 0  447.2851270583545 96.44682145403524 0  442.9791624165781 91.06906256805769 0  438.5266521117469 85.81199360630404 0  433.9309773156125 80.67960671046254 0  429.1956279150353 75.67579933888632 0  424.3241998888952 70.80437133373906 0  419.3203925223282 66.06902197812161 0  414.1880056411937 61.47334723289828 0  408.9309366751728 57.0208369601728 0  403.5531778009394 52.71487236176898 0  398.058812796452 48.55872331295853 0  392.4520140187753 44.55554594490843 0  386.7370391799677 40.70838020528396 0  380.9182281475119 37.02014757560744 0  374.9999996718656 33.49364886444181 0  368.9868479340393 30.13156202237255 0  362.8833392380029 26.93644017348339 0  356.6941085456942 23.91070967062674 0  350.4238558420009 21.0566681953261 0  344.0773426899492 18.37648307566465 0  337.6593885328982 15.87218960140942 0  331.1748670549786 13.54568949032341 0  324.6287025315056 11.39874946165088 0  318.0258660010876 9.432999863235466 0  311.3713716017894 7.649933468721599 0  304.6702726190621 6.050904302234756 0  297.9276578269805 4.637126656823085 0  291.148647441857 3.409674127905504 0  284.3383893425031 2.369478825079682 0  277.502055159398 1.517330660648639 0  270.6448362875833 0.853876741662134 0  263.7719400401456 0.3796208889774277 0  256.8885855592052 0.09492324285704967 0  243.1114143979462 0.09492324403817065 0  236.2280598850882 0.3796208931023841 0  229.3551635938215 0.8538767514891958 0  222.4979446968584 1.517330676558146 0  215.6616104703111 2.369478851036291 0  208.8513523382973 3.409674164591252 0  202.0723419066374 4.637126708856528 0  195.3297270659513 6.050904372824903 0  188.628628074828 7.649933550613184 0  181.9741336377093 9.432999965373938 0  175.3712970793675 11.39874958336037 0  168.8251325057572 13.54568964112298 0  162.340610986655 15.87218978129263 0  155.9226567874317 18.37648328793418 0  149.576143602509 21.05666843898663 0  143.3058908718157 23.91070994551046 0  137.1166601505524 26.93644048291054 0  131.0131514451933 30.13156235831508 0  124.9999996848412 33.49364923584736 0  119.0817711715717 37.0201479941652 0  113.2629601211624 40.70838066187849 0  107.5479852622251 44.55554644345162 0  101.9411864693332 48.55872385260452 0  96.44682143286516 52.71487295812284 0  91.06906254351222 57.02083760363669 0  85.81199358272519 61.4733479087879 0  80.67960667988106 66.06902271253972 0  75.67579930062769 70.80437212218331 0  70.80437129287643 75.67580015310926 0  66.06902193673014 80.67960752263491 0  61.47334718684866 85.81199441168215 0  57.02083692524275 91.0690633672404 0  52.71487232786438 96.44682224262129 0  48.55872328070024 101.941187247437 0  44.55554591578033 107.5479860232332 0  40.7083801742321 113.2629608675606 0  37.02014754791168 119.0817718975441 0  33.49364883372994 125.000000381329 0  30.13156199866361 131.0131521097709 0  26.9364401549829 137.1166607985551 0  23.91070965524918 143.3058914868915 0  21.05666818346614 149.576144185037 0  18.37648306853811 155.9226573275967 0  15.8721895918909 162.3406114925245 0  13.54568948170046 168.8251329701392 0  11.39874945301878 175.3712974960928 0  9.432999857087736 181.9741340206533 0  7.649933466342702 188.6286284076045 0  6.050904301250966 195.3297273853278 0  4.637126656808988 202.0723421730917 0  3.409674127767772 208.8513525589684 0  2.369478824521138 215.6616106615248 0  1.517330660909465 222.4979448382452 0  0.8538767414496533 229.355163714981 0  0.3796208887135322 236.2280599646376 0  0.09492324266324204 243.1114144478261 0  0.0949232442452228 256.8885856095658 0  0.3796208935834784 263.7719401236316 0  0.8538767530323526 270.6448364248016 0  1.517330679476544 277.5020553295092 0  2.369478854618649 284.3383895555228 0  3.409674170191892 291.1486476952655 0  4.6371267162381 297.9276581311522 0  6.050904381420935 304.6702729724059 0  7.649933562385399 311.3713719716595 0  9.43299997979841 318.0258664133013 0  11.3987495994252 324.6287029719946 0  13.54568965885832 331.174867545904 0  15.87218979367188 337.6593890464085 0  18.37648329843151 344.0773432384132 0  21.05666844777872 350.423856417535 0  23.91070995156048 356.6941091410045 0  26.93644048988043 362.8833398632205 0  30.13156235982007 368.9868485575877 0  33.49364924138357 375.0000003247478 0  37.0201480006036 380.9182288389023 0  40.70838066758398 386.7370398875706 0  44.55554644477201 392.4520147396792 0  48.55872386086904 398.0588135419111 0  52.71487295981296 403.5531785693063 0  57.02083760525949 408.9309374584583 0  61.47334790862246 414.1880064170849 0  66.06902271205095 419.320393319588 0  70.80437211216579 424.3242006890749 0  75.67580013809859 429.195628692521 0  80.6796075127923 433.930978054209 0  85.81199439754931 438.5266528008431 0  91.06906334717917 442.9791630582355 0  96.44682221438322 447.2851276501571 0  101.9411872243843 451.441276702356 0  107.5479859945825 455.4444540643537 0  113.2629608446994 459.2916198108319 0  119.0817718768376 462.9798524393601 0  125.0000003647644 466.5063511567065 0  131.0131521012763 469.8684379967393 0  137.1166607840049 473.0635598376539 0  143.3058914748804 476.0892903390826 0  149.5761441732679 478.9433318113714 0  155.9226573130112 481.6235169255377 0  162.3406114779862 484.1278104026658 0  168.8251329570439 486.4543105138039 0  175.3712974805475 488.601250542119 0  181.9741340135204 490.5670001408953 0  188.6286284005059 492.3500665318597 0  195.3297273788229 493.9490956972913 0  202.0723421640089 495.3628733414168 0  208.8513525529672 496.5903258712308 0  215.6616106544547 497.6305211744985 0  222.4979448327038 498.4826693384772 0  229.3551637102845 499.1461232581612 0  236.2280599621369 499.6203791111485 0  243.1114144470173 499.9050767573145 0  155.2373389820306 474.8197567317462 0  25.36256300907667 153.9152755065208 0  432.3709625126712 412.6214396304305 0  6.013151705810699 246.637913163471 0  246.6379131630491 493.986848294322 0  338.6995838441862 22.68244767887072 0  477.3175523131281 338.6995838660569 0  493.9868482700757 246.6379131399102 0  246.6201155078769 6.218451882810491 0  417.6179310263282 72.7156044707053 0  102.2232990934413 445.0100869616822 0  63.66330858966404 92.20354579482142 0  391.3105220491464 50.73522820883105 0  72.79295043967942 418.0702734974704 0  448.290574428537 108.25674339002 0  402.4604651193511 440.7462829841712 0  97.55317348421397 59.11376320116034 0  136.7376477664901 33.58246472647134 0  363.3288394375288 465.6947312928271 0  44.0678766556007 381.0860953771871 0  469.6905266180034 142.3890690100806 0  22.68244791668644 338.6995843487432 0  338.699584349159 477.317552078365 0  173.389488083762 18.6681884918202 0  483.4809734778481 179.7121987795732 0  13.50237455842738 306.4709525540879 0  305.9825168523021 487.24416992
[...]
<PointData  Vectors="f_12"> 
<DataArray  type="Float64"  Name="f_12"  NumberOfComponents="3" format="ascii">3.0543305221158255e-02 1.6745225514050791e-01 8.4086615004958498e-01  3.0931945234892413e-02 1.6715763859129967e-01 8.5827906018188271e-01  3.2218273000240209e-02 1.8337915326416693e-01 8.2917282756110466e-01  3.2179263701408549e-02 1.7108120425445564e-01 8.8895269924835663e-01  3.2219912150210188e-02 1.8342996492083283e-01 8.2898605728224983e-01  3.2219304605048342e-02 1.8345881882672385e-01 8.2881742902357203e-01  3.2216431977034117e-02 1.8346922038874758e-01 8.2864869453208645e-01  3.2211293704477853e-02 1.8345905930570747e-01 8.2849034929036547e-01  3.2203893060598010e-02 1.8342815081085381e-01 8.2834344068418597e-01  3.2194242417514396e-02 1.8337732639053300e-01 8.2820431834336827e-01  3.2182355989509803e-02 1.8330641908184317e-01 8.2807439705905117e-01  3.2168256072534297e-02 1.8321551828526877e-01 8.2795413584536426e-01  3.2151968115631542e-02 1.8310504006097150e-01 8.2784249577243441e-01  3.2133539662271650e-02 1.8297476955382558e-01 8.2774250218469758e-01  3.2113071742147142e-02 1.8282372978987163e-01 8.2766314654892970e-01  3.2090449505973284e-02 1.8265681774227177e-01 8.2757532145895940e-01  3.2065964533278334e-02 1.8246823943419349e-01 8.2751984730556261e-01  3.2039411389653757e-02 1.8226449511244361e-01 8.2745592983716254e-01  3.2011067961265023e-02 1.8204195637535558e-01 8.2741300574735732e-01  3.1980913804106233e-02 1.8180283989039150e-01 8.2737921207886977e-01  3.1949013179283572e-02 1.8154746844779712e-01 8.2735556556632761e-01  3.1915676369847087e-02 1.8127552740759603e-01 8.2735634351188725e-01  3.1880787544943862e-02 1.8098881054966817e-01 8.2736784863615476e-01  3.1844164136888127e-02 1.8068869517753425e-01 8.2737581058277387e-01  3.1806276389676300e-02 1.8037445898808971e-01 8.2740303238602597e-01  3.1767289620882572e-02 1.8004724896943280e-01 8.2745057534983946e-01  3.1727527963779950e-02 1.7970823781404940e-01 8.2752581398700331e-01  3.1686255013590271e-02 1.7935788584492393e-01 8.2759643256322635e-01  3.1643981819584548e-02 1.7899696963382733e-01 8.2767944736600607e-01  3.1601505568738683e-02 1.7862759659109367e-01 8.2779688269347673e-01  3.1557820886582620e-02 1.7824853574088537e-01 8.2791387005956318e-01  3.1513780671318062e-02 1.7786234169408238e-01 8.2805251686345671e-01  3.1469655442881571e-02 1.7747036862234922e-01 8.2821706296798392e-01  3.1424532132255940e-02 1.7707046283755570e-01 8.2838108098480767e-01  3.1379872417378669e-02 1.7666789173696268e-01 8.2857792050968504e-01  3.1335141434677638e-02 1.7626138933575639e-01 8.2879205327316030e-01  3.1289632199133333e-02 1.7584859555272359e-01 8.2900649014536820e-01  3.1244888213488347e-02 1.7543595927049940e-01 8.2925197495254233e-01  3.1201188407023347e-02 1.7502543614682994e-01 8.2953010568031904e-01  3.1157420884373069e-02 1.7461261420739468e-01 8.2981760216350609e-01  3.1113456781562319e-02 1.7419701371117158e-01 8.3011163463471394e-01  3.1070906417114633e-02 1.7378649267200286e-01 8.3043856457992860e-01  3.1029571306690991e-02 1.7338062229863843e-01 8.3079243637365774e-01  3.0988716078941020e-02 1.7297610920553824e-01 8.3115973952350730e-01  3.0949146829611165e-02 1.7257726939456555e-01 8.3155175260974390e-01  3.0910819437782094e-02 1.7218419172244603e-01 8.3196620134629784e-01  3.0873653747505676e-02 1.7179672411879476e-01 8.3240057216936936e-01  3.0837488188501346e-02 1.7141415128403462e-01 8.3285186934781219e-01  3.0803577476945506e-02 1.7104362809191434e-01 8.3333532313293990e-01  3.0771087898178187e-02 1.7068078032793224e-01 8.3383888682495566e-01  3.0740219436844372e-02 1.7032696111061896e-01 8.3436381764915746e-01  3.0711228268456646e-02 1.6998377424715055e-01 8.3491261899367741e-01  3.0683501272586115e-02 1.6964783637369249e-01 8.3547706995249815e-01  3.0658697966921722e-02 1.6932903934652405e-01 8.3607527761039946e-01  3.0635581743418846e-02 1.6902030333347087e-01 8.3669223629020140e-01  3.0614118025944975e-02 1.6872149187764399e-01 8.3732719639666320e-01  3.0595149050137008e-02 1.6843782396207965e-01 8.3798822898897740e-01  3.0578472519107055e-02 1.6816823593619998e-01 8.3867236143289836e-01  3.0564008457355022e-02 1.6791237029210415e-01 8.3937806015893246e-01  3.0550498283889119e-02 1.6766247832985776e-01 8.4009306855620913e-01  3.0534428231980576e-02 1.6723155032463341e-01 8.4162351325642604e-01  3.0529397018755098e-02 1.6703533365617831e-01 8.4241464698173896e-01  3.0526069351237504e-02 1.6685005884771301e-01 8.4322029124840403e-01  3.0526231633775686e-02 1.6668738367709182e-01 8.4405445312061578e-01  3.0528809904467269e-02 1.6654050225535039e-01 8.4490753441213273e-01  3.0533474694201476e-02 1.6640733926731613e-01 8.4577651992440794e-01  3.0539896077483825e-02 1.6628573201725641e-01 8.4665873262021063e-01  3.0549391298494325e-02 1.6618455509781602e-01 8.4756311061112743e-01  3.0561060213368043e-02 1.6609792097213091e-01 8.4848253531450868e-01  3.0574637684282622e-02 1.6602409806144847e-01 8.4941489534205161e-01  3.0591810589656199e-02 1.6597473638400784e-01 8.5036998928541296e-01  3.0609933653533667e-02 1.6593182556768740e-01 8.5133099071211926e-01  3.0629777350775742e-02 1.6590067059139404e-01 8.5230227711570428e-01  3.0652886671985992e-02 1.6589219121808141e-01 8.5329177782674259e-01  3.0677929480461528e-02 1.6589726491264253e-01 8.5429107624505229e-01  3.0704815403748097e-02 1.6591536375050342e-01 8.5529914679831065e-01  3.0733475328124791e-02 1.6594611179077476e-01 8.5631500174363084e-01  3.0763768141655264e-02 1.6598861619857438e-01 8.5733736394718496e-01  3.0795947442828746e-02 1.6604486765807774e-01 8.5836644793513361e-01  3.0830533230216523e-02 1.6611897459546746e-01 8.5940259910950356e-01  3.0865117769049981e-02 1.6619315558242673e-01 8.6043766237776664e-01  3.0902241042231115e-02 1.6628659099545542e-01 8.6147803058405814e-01  3.0940069658606677e-02 1.6638568792630845e-01 8.6251770643680015e-01  3.0979628011943084e-02 1.6649842250487484e-01 8.6355812751492877e-01  3.1019901294743722e-02 1.6661724550229995e-01 8.6459606988610049e-01  3.1061336468808959e-02 1.6674583735415688e-01 8.6563112432514100e-01  3.1103695916663225e-02 1.6688262249284511e-01 8.6666157375080943e-01  3.1146805152366449e-02 1.6702647382159586e-01 8.6768603047509929e-01  3.1190538521202064e-02 1.6717665443413485e-01 8.6870308466006341e-01  3.1234696308701352e-02 1.6733181105618397e-01 8.6971147865127696e-01  3.1279329856053313e-02 1.6749270625511919e-01 8.7070945838828440e-01  3.1324208438242233e-02 1.6765774726449428e-01 8.7169570777868921e-01  3.1368892864458223e-02 1.6782330062045217e-01 8.7267076208559369e-01  3.1413802025778044e-02 1.6799359310956871e-01 8.7363031960142179e-01  3.1459061819157544e-02 1.6817041900075813e-01 8.7457048055609721e-01  3.1503408234469364e-02 1.6834215740360114e-01 8.7549859736580560e-01  3.1547341484278908e-02 1.6851400053267093e-01 8.7640883055194030e-01  3.1591225224266765e-02 1.6869022128818784e-01 8.7729443007092756e-01  3.1634050124434557e-02 1.6886089298753165e-01 8.7816453489706969e-01  3.1676107423370736e-02 1.6902959666768017e-01 8.7901300158213758e-01  3.1717753380661157e-02 1.6920112172424562e-01 8.7983017033273248e-01  3.1758242511513532e-02 1.6936776949106819e-01 8.8062469209959848e-01  3.1797480522802478e-02 1.6952866871086014e-01 8.8139713511738083e-01  3.1835461437848364e-02 1.6968448354269686e-01 8.8214403614348003e-01  3.1872257615239860e-02 1.6983699439765471e-01 8.8285940870719970e-01  3.1907580740034462e-02 1.6998300499359395e-01 8.8354772229460010e-01  3.1941408032949467e-02 1.7012300460852267e-01 8.8420566107342025e-01  3.1973657729561962e-02 1.7025671546729532e-01 8.8483138286411811e-01  3.2004193262520311e-02 1.7038268958820491e-01 8.8542670166340887e-01  3.2032923919882154e-02 1.7049991412846185e-01 8.8599306987272775e-01  3.2059844024605648e-02 1.7060976920608995e-01 8.8652343540611611e-01  3.2084896338057979e-02 1.7071234442189953e-01 8.8701508575700272e-01  3.2107955469205751e-02 1.7080572382865575e-01 8.8747261365614361e-01  3.2128960775302765e-02 1.7088951948698297e-01 8.8789557236605920e-01  3.2147879768377664e-02 1.7096371768070875e-01 8.8828274865781087e-01  3.2164653049306130e-02 1.7102740327096971e-01 8.8863639106457704e-01  3.2191613717969157e-02 1.7112738167157276e-01 8.8921652431007003e-01  3.2201856748939273e-02 1.7115660312595402e-01 8.8948059030314541e-01  3.2209768285565911e-02 1.7118283338747572e-01 8.8966623147916202e-01  3.2215437845466585e-02 1.7119478042785882e-01 8.8983343430578710e-01  3.2218834943723067e-02 1.7119661804475719e-01 8.8996015071720591e-01  3.2219971587197194e-02 1.7118880823655391e-01 8.9004456648664254e-01  3.2218861704377856e-02 1.7117034108316048e-01 8.9009228551677400e-01  3.2215505729276284e-02 1.7114104532157146e-01 8.9010418139021474e-01  3.2209949402485734e-02 1.7110346964760023e-01 8.9006936886246590e-01  3.2202174935937619e-02 1.7105169460675196e-01 8.9001666230883891e-01  3.2192267209776346e-02 1.7099405187674266e-01 8.8990789394701175e-01  3.2180267884276484e-02 1.7092654245868227e-01 8.8976464348367923e-01  3.2166227580605930e-02 1.7085118795713153e-01 8.8957886308088452e-01  3.2150095460035638e-02 1.7076296009585717e-01 8.8937357471824163e-01  3.2132037787664436e-02 1.7066750396974778e-01 8.8912723623057288e-01  3.2112153633682458e-02 1.7056597834076820e-01 8.8883801606442925e-01  3.2090434943198354e-02 1.7045609211727381e-01 8.8851699463497180e-01  3.2066995358584552e-02 1.7033937900433965e-01 8.8816103650324052e-01  3.2041897587816573e-02 1.7021590962769528e-01 8.8777226774227602e-01  3.2015187621362788e-02 1.7008558186574427e-01 8.8735300648991411e-01  3.1987067817300936e-02 1.6995094503367228e-01 8.8689858566325952e-01  3.1957671024388574e-02 1.6981313133900605e-01 8.8640865135588476e-01  3.1926938304653298e-02 1.6966993239120226e-01 8.8589182253842258e-01  3.1894986242311352e-02 1.6952241784086597e-01 8.8534740060249284e-01  3.1861962485264676e-02 1.6937192227640696e-01 8.8477459186301799e-01  3.1828002098612383e-02 1.6921944340326245e-01 8.8417379176923905e-01  3.1793239574718982e-02 1.6906591827633474e-01 8.8354567401415851e-01  3.1757742515320223e-02 1.6891142570025675e-01 8.8289252177360134e-01  3.1721671364120359e-02 1.6875718252179381e-01 8.8221465311318370e-01  3.1685123563185771e-02 1.6860365146649361e-01 8.8151363466668053e-01  3.1648200194519728e-02 1.6845133813438173e-01 8.8079096107480981e-01  3.1611029688048832e-02 1.6830106232851830e-01 8.8004767349272450e-01  3.1573578699548598e-02 1.6815202711081489e-01 8.7928637310384161e-01  3.1536150213427011e-02 1.6800678567890179e-01 8.7850646017276712e-01  3.1499094330291723e-02 1.6786835724496008e-01 8.7770685728018261e-01  3.1462233669048462e-02 1.6773439267157714e-01 8.7689218303493077e-01  3.1425805173414853e-02 1.6760676778343178e-01 8.7606256242992953e-01  3.1389733082371384e-02 1.6748437332742527e-01 8.7522049572027838e-01  3.1354207288566721e-02 1.6736860748797772e-01 8.7436661584394393e-01  3.1319096070895579e-02 1.6725804032749542e-01 8.7350276965872886e-01  3.1285342952861415e-02 1.6716055103115776e-01 8.7262750200994055e-01  3.1252756310315870e-02 1.6707409240861765e-01 8.7174335008466053e-01  3.1220284935109987e-02 1.6698942747750245e-01 8.7085426041545488e-01  3.1189464734878387e-02 1.6691933125610342e-01 8.6995811838881043e-01  3.1160057306388513e-02 1.6686147826953876e-01 8.6905698664083808e-01  3.1132408690626077e-02 1.6681831684922815e-01 8.6815260349270595e-01  3.1104887073205790e-02 1.6677653056541972e-01 8.6724589330669266e-01  3.1080300755031282e-02 1.6675848063468787e-01 8.6633807885802527e-01  3.1056364892264265e-02 1.6674565026195173e-01 8.6542992679890396e-01  3.1034906603235324e-02 1.6675231787014561e-01 8.6452351249778292e-01  3.1013518462256827e-02 1.6675961684604748e-01 8.6361634249857477e-01  3.0995016235268649e-02 1.6678917408580915e-01 8.6271372124452261e-01  3.0978815801278033e-02 1.6683620282526060e-01 8.6181610843645884e-01  3.0964231449736316e-02 1.6689534016224714e-01 8.6092276271628976e-01  3.0951747068616295e-02 1.6697010633796291e-01 8.6003566554638422e-01  3.0941086038383962e-02 1.6705830714443556e-01 8.5915463498269184e-01  3.0925479461840693e-02 1.6727643829199251e-01 8.5741391615021745e-01  3.0921268003175628e-02 1.6741146176817071e-01 8.5655849811010643e-01  3.0918706029758498e-02 1.6755826520922115e-01 8.5571070289822959e-01  3.0918518449143128e-02 1.6772193757615764e-01 8.5487438888469325e-01  3.0920313895572409e-02 1.6789958831183036e-01 8.5404829194856768e-01  3.0924226871970061e-02 1.6809207624414965e-01 8.5323363597950141e-01  3.0930204199989451e-02 1.6829892426221307e-01 8.5243069736670563e-01  3.0938293277052536e-02 1.6852036109968960e-01 8.5164033280676388e-01  3.0948513066023343e-02 1.6875640647335069e-01 8.5086327647930671e-01  3.0960904387309605e-02 1.6900721378942027e-01 8.5010048776282510e-01  3.0975137415195905e-02 1.6927044500070471e-01 8.4935034927177511e-01  3.0991814227167878e-02 1.6954998073594829e-01 8.4861794466900287e-01  3.1009608364047508e-02 1.6983695328083062e-01 8.4789390207328219e-01  3.1029571113667821e-02 1.7013817682710922e-01 8.4718687712618190e-01  3.1051612366042262e-02 1.7045286956181985e-01 8.4649707143797803e-01  3.1073906920305691e-02 1.7076928853825279e-01 8.4580937336838669e-01  3.1098734939618636e-02 1.7110185613101447e-01 8.4514408677786723e-01  3.1125807301725972e-02 1.7144840502475853e-01 8.4450037073491357e-01  3.1153744046400617e-02 1.7180020367047619e-01 8.4386601048451448e-01  3.1182903306996881e-02 1.7215937439387854e-01 8.4324495010827072e-01  3.1213282026614483e-02 1.7252573348448397e-01 8.4263801211324041e-01  3.1244972170786058e-02 1.7289963181869281e-01 8.4204717978629429e-01  3.1277689761750729e-02 1.7327916661298215e-01 8.4147049055463086e-01  3.1311209372525496e-02 1.7366287278841344e-01 8.4090611066403698e-01  3.1346088916607458e-02 1.7405356631430763e-01 8.4036268678736492e-01  3.1381356877803815e-02 1.7444565537681636e-01 8.3982866705473480e-01  3.1417065287787038e-02 1.7483916821291695e-01 8.3930608566452514e-01  3.1453852220496917e-02 1.7523715427237324e-01 8.3880559606035443e-01  3.1490713467616005e-02 1.7563406067514961e-01 8.3831416457910723e-01  3.1527759549270458e-02 1.7603023579430313e-01 8.3783453707978284e-01  3.1564982545596608e-02 1.7642526200553155e-01 8.3736847778237022e-01  3.1602352483984519e-02 1.7681858784909268e-01 8.3691750281611277e-01  3.1639630990388752e-02 1.7720870721898938e-01 8.3647944269502406e-01  3.1676604840274722e-02 1.7759434834104920e-01 8.3605196669056780e-01  3.1713065909916398e-02 1.7797437405781089e-01 8.3563226386254408e-01  3.1749489680760606e-02 1.7834973365423623e-01 8.3523492223423168e-01  3.1785318805337186e-02 1.7871802960488642e-01 8.3484922029603315e-01  3.1819948019517104e-02 1.7907719805985356e-01 8.3446081491058921e-01  3.1854082873449943e-02 1.7942844287088416e-01 8.3409237678420955e-01  3.1887371086585806e-02 1.7977015449579409e-01 8.3373757928021075e-01  3.1919518445040616e-02 1.8010124575780995e-01 8.3338984788539050e-01  3.1950569047363861e-02 1.8042100678009920e-01 8.3305449570016965e-01  3.1980314467549349e-02 1.8072873174585349e-01 8.3272652625306864e-01  3.2008818013951446e-02 1.8102326014886913e-01 8.3241428729513989e-01  3.2035793607110209e-02 1.8130434159841147e-01 8.3210734252360163e-01  3.2061263009711509e-02 1.8157080134365147e-01 8.3181241188643473e-01  3.2085129141756485e-02 1.8182203266446165e-01 8.3152854863375159e-01  3.2107217843843364e-02 1.8205793603847256e-01 8.3124911963608972e-01  3.2127569059228679e-02 1.8227689895744245e-01 8.3098375834454363e-01  3.2146068646091125e-02 1.8247875917866482e-01 8.3072861821290322e-01  3.2162589709161138e-02 1.8266366717200974e-01 8.3047773423145321e-01  3.2177142562166174e-02 1.8283030644192713e-01 8.3023807940952266e-01  3.2189660999996018e-02 1.8297728691368817e-01 8.3001385381071480e-01  3.2200070046289726e-02 1.8310645385853830e-01 8.2979279259455629e-01  3.2208318797082060e-02 1.8321682797674288e-01 8.2957766426457347e-01  3.2214409846025992e-02 1.8330666459405542e-01 8.2937727563730379e-01  3.1979575832753938e-02 1.8056259759669960e-01 8.3352731418477755e-01  3.1286356479827478e-02 1.6742217852979269e-01 8.7134971180726906e-01  3.1430208696183466e-02 1.7694839332943896e-01 8.2922792888370211e-01  3.0997776214332355e-02 1.6755601103959664e-01 8.5894732777837179e-01  3.2216970119017543e-02 1.8321226709179503e-01 8.2995225126286021e-01  3.1832339269320310e-02 1.6982562809689766e-01 8.8131143107260712e-01  3.0912543067388245e-02 1.7191582545498543e-01 8.3339583783917948e-01  3.0608063370378344e-02 1.6778118623419697e-01 8.4185643972162483e-01  3.2186701165359315e-02 1.7125166524724622e-01 8.8839981807039192e-01  3.1254964664083035e-02 1.6761059320960675e-01 8.6912734647736756e-01  3.1681454244565012e-02 1.7748163322702681e-01 8.3681536101720444e-01  3.1657770623728772e-02 1.6867380637372772e-01 8.8005982189398402e-01  3.1471756630607375e-02 1.6838931381760219e-01 8.7398245640858829e-01  3.1473544116530021e-02 1.7523961427853782e-01 8.3959716000719253e-01  3.0978291286372701e-02 1.6676992134416938e-01 8.6213010153214420e-01  3.1687940599473961e-02 1.7921546358669205e-01 8.2837997648022943e-01  3.1896521326390856e-02 1.6968468885376417e-01 8.8459673461122945e-01  3.2086302548120275e-02 1.7057753812689641e-01 8.8774482054539727e-01  3.1942439620219296e-02 1.8133516261833549e-01 8.2814964464604213e-01  3.1248211434933802e-02 1.7265290281401824e-01 8.4342388480999353e-01  3.0775330163841895e-02 1.6633010198540779e-01 8.5607784344006665e-01  3.1076784658423742e-02 1.7035866080749973e-01 8.4800207698959007e-01  3.2058910607465199e-02 1.8227193584380011e-01 8.2821329391300780e-01  3.2187587700180618e-02 1.7111746389637703e-01 8.8910489641676838e-01  3.0655397473384829e-02 1.6647535610667899e-01 8.5043278769131614e-01  3.1013928331809590e-02 1.6911856775295905e-01 8.5170349145032531e-01  3.2163682413169220e-02 1.8303853248116589e-01 8.2865127783112347e-01  3.2124424749671185e-02 1.8208475502009738e-01 8.3181522152007648e-01  3.1123063460786700e-02 1.6718262462422592e-01 8.6593311157784425e-01  3.2026210112516322e-02 1.7061829089902658e-01 8.8513210471706194e-01  3.0735890916750570e-02 1.6987067167345543e-01 8.3650091809385874e-01  3.1184089537050493e-02 1.7466667970891805e-01 8.3063903045080567e-01  3.2219638682079284e-02 1.7130746319887913e-01 8.8943942525398412e-01  3.0606022377554967e-02 1.6679602578881120e-01 8.4677895892149191e-01  3.0981529889487075e-02 1.6824705783746924e-01 8.5478903625831049e-01  3.2208025229894889e-02 1.8330797167128884e-01 8.2911106563756798e-01  3.1633384453598437e-02 1.6900802576304530e-01 8.7739897936168265e-01  3.1444098679903013e-02 1.6787889614284876e-01 8.7543245620304666e-01  3.2186284611459053e-02 1.8279288782656028e-01 8.3079660627660434e-01  3.1856908301901507e-02 1.7928247184794324e-01 8.3493852607451324e-01  3.1048588664205901e-02 1.6729681467245014e-01 8.6232751073753777e-01  3.2120579223500624e-02 1.7099818855857471e-01 8.8701724507666013e-01  3.0658014746430057e-02 1.6875834045349283e-01 8.3894553633472690e-01  3.1806932763899731e-02 1.8019244459463940e-01 8.2834190319471401e-01  3.0825149134689107e-02 1.7090058759039153e-01 8.3494734616566924e-01  3.2213409159953070e-02 1.7131246376974732e-01 8.8916526542621599e-01  3.1935108522597205e-02 1.7024092489960163e-01 8.8336267696857251e-01  3.0607787745133688e-02 1.6729794630375053e-01 8.4430075430411822e-01  3.1133127634059472e-02 1.6721329947811242e-01 8.6618711513148527e-01  3.2059636679409725e-02 1.8139032996024479e-01 8.3264798982893939e-01  3.1309916807341645e-02 1.7581441501618375e-01 8.3001035947116431e-01  3.1378347272092905e-02 1.7414424451549659e-01 8.4122351089780356e-01  3.1985378468628173e-02 1.7010013787679248e-01 8.8608474168176887e-01  3.1163918069484885e-02 1.7160754336356449e-01 8.4525449734096791e-01  3.1197516864134505e-02 1.6725702166874490e-01 8.6858064636202048e-01  3.1059314372387684e-02 1.7343124816842434e-01 8.3175798763657338e-01  3.1579350727