<?xml version="1.0"?>
<VTKFile type="UnstructuredGrid"  version="0.1"  >
<UnstructuredGrid>
<Piece  NumberOfPoints="25605" NumberOfCells="50684">
<Points>
<DataArray  type="Float64"  NumberOfComponents="3"  format="ascii">500 250 0  0 250 0  250 500 0  250 0 0  252.9976310880008 499.9820277697183 0  255.994831180465 499.9281136629446 0  258.9911693467 499.8382654314166 0  261.9862147844171 499.7124959931758 0  264.9795368730259 499.550823430959 0  267.9707052380909 499.3532709896657 0  270.9592898147818 499.1198670729815 0  273.944860911003 498.850645239173 0  276.9269892620302 498.5456441969613 0  279.9052461102784 498.204907798141 0  282.879203246639 497.8284850332306 0  285.8484330760252 497.4164300243493 0  288.812508703066 496.9688020138868 0  291.7710039592635 496.4856653605544 0  294.7234934645729 495.9670895309458 0  297.6695527219374 495.4131490839284 0  300.6087581526373 494.8239236640241 0  303.5406871632312 494.1994979890193 0  306.4649182085955 493.5399618372653 0  309.3810308492501 492.8454100354388 0  312.2886058121011 492.1159424449053 0  315.1872250543244 491.3516639464432 0  318.0764718164482 490.552684426976 0  320.9559306911491 489.7191187614222 0  323.8251876776197 488.8510867975364 0  326.6838302398962 487.9487133391117 0  329.5314473625203 487.0121281293906 0  332.3676296259557 486.0414658270902 0  335.1919692490408 485.0368659922747 0  338.0040601519906 483.9984730650284 0  340.8034980252745 482.926436340691 0  343.5898803648273 481.8209099570125 0  346.3628065522297 480.6820528636277 0  349.1218779058009 479.5100288014175 0  351.866697726272 478.3050062840155 0  354.5968713702315 477.0671585667096 0  357.3120063039883 475.7966636224122 0  360.0117121560444 474.4937041177227 0  362.6956007624657 473.158467392091 0  365.3632862410136 471.7911454221605 0  368.0143850392318 470.39193479756 0  370.6485159774368 468.9610366993228 0  373.2653003309281 467.4986568563726 0  375.8643618621848 466.0050055277077 0  378.4453268904447 464.4802974634425 0  381.0078243277097 462.9247518841339 0  383.5514857466806 461.3385924407896 0  386.0759454147861 459.7220471945478 0  388.5808403686633 458.0753485704519 0  391.0658104727646 456.398733318938 0  393.5304984398443 454.6924425024281 0  395.9745499014433 452.9567214483695 0  398.3976134594079 451.1918197133078 0  400.7993407313268 449.3979910505549 0  403.1793863983767 447.5754933756127 0  405.5374082633365 445.7245887228382 0  407.8730672875487 443.8455432173283 0  410.1860276678057 441.9386270139729 0  412.4759568502628 440.0041142859584 0  414.7425255888164 438.0422831775295 0  416.9854079982472 436.0534157591817 0  419.2042816111551 434.0377979776246 0  421.3988273934515 431.9957196423856 0  423.5687298230711 429.9274743545459 0  425.7136769203488 427.833359477718 0  427.8333602660664 425.7136761224903 0  429.9274751166117 423.5687290330868 0  431.9957203865596 421.3988266032683 0  434.0377986976932 419.2042808279605 0  436.0534164531565 416.9854072250276 0  438.0422838486247 414.7425248228072 0  440.0041149354581 412.4759560907189 0  441.9386276454979 410.1860269110977 0  443.8455438341414 407.8730665301906 0  445.7245893245478 405.5374075061595 0  447.5754939498422 403.1793856577179 0  449.3979916037435 400.7993399998601 0  451.1918202566634 398.3976127227471 0  452.9567219786559 395.9745491641559 0  454.6924430171686 393.53049770576 0  456.3987338202434 391.0658097392857 0  458.0753490553683 388.5808396405746 0  459.7220476673142 386.0759446861523 0  461.3385928978555 383.5514850233965 0  462.924752323721 381.0078236132563 0  464.4802978831972 378.4453261895309 0  466.005005928237 375.8643611748071 0  467.4986572464557 373.2652996426359 0  468.9610370690891 370.64851530636 0  470.3919351512159 368.0143843787793 0  471.7911457549822 365.363285601149 0  473.1584677051019 362.6956001426453 0  474.4937044170927 360.0117115451396 0  475.7966639080153 357.3120057030471 0  477.0671588375024 354.5968707823731 0  478.3050065468899 351.8666971371142 0  479.5100290514928 349.1218773267684 0  480.68205310082 346.3628059844174 0  481.8209101826405 343.5898798059497 0  482.926436550004 340.8034974883511 0  483.9984732613996 338.0040596298491 0  485.0368661774559 335.1919687381426 0  486.0414660017697 332.3676291253755 0  487.0121282892932 329.5314468859938 0  487.9487134870012 326.6838297809975 0  488.8510869337421 323.825187236945 0  489.7191188882317 320.9559302627332 0  490.5526845449373 318.0764713996244 0  491.3516640573307 315.1872246437704 0  492.1159425458163 312.2886054198597 0  492.8454101279934 309.3810304707378 0  493.5399619220304 306.4649178429931 0  494.1994980644915 303.5406868190015 0  494.8239237308971 300.6087578291331 0  495.4131491423161 297.6695524213444 0  495.9670895813101 294.7234931875826 0  496.4856654030534 291.7710037084818 0  496.9688020494549 288.8125084767419 0  497.416430053242 285.8484328766153 0  497.8284850586459 282.8792030550702 0  498.2049078189591 279.9052459374942 0  498.5456442137286 276.9269891072627 0  498.850645253019 273.9448607671062 0  499.1198670835989 270.9592896885852 0  499.3532709967772 267.9707051394148 0  499.5508234355897 264.9795367958812 0  499.7124959959075 261.9862147275054 0  499.8382654331632 258.9911692981657 0  499.928113663985 255.99483113709 0  499.9820277699785 252.9976310663071 0  499.9820277697257 247.0023689126091 0  499.9281136630343 244.0051688232745 0  499.8382654314717 241.0088306548307 0  499.7124959931211 238.0137852144455 0  499.5508234310553 235.0204631285785 0  499.3532709900699 232.0292947675166 0  499.119867073792 229.0407101948513 0  498.8506452406773 226.0551391046306 0  498.5456441987692 223.0730107546571 0  498.2049078002218 220.0947539069917 0  497.8284850356648 217.120796771709 0  497.4164300267099 214.151566940267 0  496.968802017216 211.187491318118 0  496.4856653659872 208.2289960727951 0  495.9670895372035 205.2765065698432 0  495.4131490907147 202.330447313 0  494.8239236713522 199.3912418828135 0  494.1994979969027 196.4593128727251 0  493.5399618460726 193.5350818293917 0  492.8454100458835 190.6189691934644 0  492.1159424557956 187.7113942302294 0  491.3516639574156 184.8127749862999 0  490.5526844387521 181.923528225163 0  489.7191187738694 179.0440693509028 0  488.851086810667 176.1748123648628 0  487.948713352938 173.3161698030064 0  487.0121281439243 170.4685526807917 0  486.0414658415049 167.6323704153526 0  485.0368660060558 164.8080307889799 0  483.9984730779887 161.9959398824702 0  482.9264363544502 159.1965020100202 0  481.8209099702043 156.4101196678486 0  480.6820528745703 153.6371934739656 0  479.5100288124721 150.8781221197951 0  478.3050062927852 148.1333022933829 0  477.0671585723666 145.403128642049 0  475.796663627405 142.687993706517 0  474.4937041236649 139.9882878560814 0  473.1584673984938 137.3043992502131 0  471.7911454319914 134.6367137778867 0  470.3919348096422 131.9856149833316 0  468.9610367113798 129.3514840444451 0  467.49865687022 126.7346996935054 0  466.0050055427385 124.1356381636107 0  464.4802974781252 121.5546731340727 0  462.9247519005733 118.992175699009 0  461.3385924615702 116.4485142862037 0  459.722047215144 113.924054616957 0  458.0753485880027 111.4191596576888 0  456.3987333337139 108.9341895488548 0  454.692442514023 106.4695015766915 0  452.95672145825 104.0254501122942 0  451.1918197247282 101.6023865560754 0  449.3979910627008 99.20065928473332 0  447.5754933882043 96.82061361786421 0  445.7245887341124 94.46259175085058 0  443.8455432269008 92.12693272420489 0  441.9386270210269 89.81397234064673 0  440.0041142971544 87.52404316283014 0  438.0422831897421 85.25747442512349 0  436.0534157701649 83.01459201399018 0  434.0377979907771 80.79571840315057 0  431.9957196541004 78.60117261898753 0  429.9274743620823 76.43127018474144 0  427.8333594859367 74.28632308796901 0  425.7136761283247 72.16663973969838 0  423.5687290359737 70.07252488617331 0  421.3988265987173 68.00427960915448 0  419.2042808240311 65.962201298694 0  416.9854072196475 63.94658354201471 0  414.742524818212 61.95771614734943 0  412.4759560828471 59.99588505781063 0  410.1860269003736 58.06137234555209 0  407.8730665183855 56.15445615624427 0  405.5374074948106 54.27541066643354 0  403.1793856410161 52.424506037209 0  400.7993399855741 50.60200838545225 0  398.3976127114923 48.80817973503514 0  395.9745491514178 47.04327801218227 0  393.5304976958927 45.30755697591243 0  391.0658097308475 43.60126617398947 0  388.5808396359472 41.92465094154986 0  386.0759446832285 40.27795233078868 0  383.5514850239504 38.66140710249451 0  381.007823619977 37.07524768041412 0  378.4453262000283 35.51970212308933 0  375.8643611921311 33.99499408185753 0  373.2652996617874 32.50134276439832 0  370.6485153256615 31.03896294154612 0  368.0143843882092 29.60806485383361 0  365.3632855907917 28.2088542396306 0  362.6956001322776 26.84153228966238 0  360.0117115354126 25.50629557814059 0  357.3120057003284 24.20333609069269 0  354.596870775138 22.93284115916481 0  351.8666971306181 21.69499345021163 0  349.121877320111 20.48997094563194 0  346.3628059771881 19.31794689616012 0  343.5898798100648 18.17908981902079 0  340.8034974914794 17.07356345121562 0  338.0040596332272 16.00152673987083 0  335.1919687416658 14.9631338238211 0  332.3676291322006 13.95853400061199 0  329.5314468917599 12.98787171264172 0  326.6838297822748 12.05128651341042 0  323.8251872378164 11.14891306652726 0  320.9559302656854 10.28088111264219 0  318.076471404611 9.447315456473888 0  315.1872246503818 8.648335944454999 0  312.2886054290304 7.88405745654299 0  309.3810304838133 7.154589875203868 0  306.4649178487239 6.460038079298243 0  303.5406868253978 5.800501936910877 0  300.6087578339258 5.176076270093546 0  297.669552426172 4.586850858621602 0  294.7234931936628 4.0329104197954 0  291.7710037123022 3.514334597594029 0  288.8125084726372 3.031197949900047 0  285.8484328697872 2.58356994576863 0  282.8792030484304 2.171514940473202 0  279.905245932244 1.795092180408318 0  276.9269891008954 1.454
[...]
<PointData  Vectors="f_12"> 
<DataArray  type="Float64"  Name="f_12"  NumberOfComponents="3" format="ascii">3.2033238115057377e-03 2.6792849052798273e-01 4.5609433692042356e-01  3.2444050291745336e-03 2.6553043340312532e-01 4.7200019184303632e-01  3.3796051204094536e-03 2.9187092028765155e-01 4.3778601876012030e-01  3.3754962830149916e-03 2.6741060508712433e-01 4.9773683701404764e-01  3.3797085687378749e-03 2.9191151728784281e-01 4.3770715326352244e-01  3.3797672284306057e-03 2.9195430459019550e-01 4.3761577799119755e-01  3.3797813603635633e-03 2.9198801783775752e-01 4.3753598437128993e-01  3.3797508086153730e-03 2.9201442628770252e-01 4.3746264782071970e-01  3.3796753800291847e-03 2.9203531193274057e-01 4.3739185255117746e-01  3.3795546310107483e-03 2.9205183062573409e-01 4.3732251309745401e-01  3.3793889293389817e-03 2.9206128905067252e-01 4.3725927636456918e-01  3.3791779917060867e-03 2.9206654035781454e-01 4.3719684167568057e-01  3.3789220384082374e-03 2.9206648904320714e-01 4.3713675875233371e-01  3.3786210600887517e-03 2.9206020386931170e-01 4.3708126419671539e-01  3.3782746892668499e-03 2.9204923357083179e-01 4.3702769776485961e-01  3.3778843420393828e-03 2.9202792308858394e-01 4.3698793902581984e-01  3.3774488093333706e-03 2.9200462650543230e-01 4.3694298588729663e-01  3.3769677916717822e-03 2.9197855791665567e-01 4.3689504645468336e-01  3.3764434961886724e-03 2.9194297879610087e-01 4.3685977075471116e-01  3.3758749028332717e-03 2.9190247069480235e-01 4.3682575149194869e-01  3.3752617069115446e-03 2.9185730969574558e-01 4.3679380896185793e-01  3.3746043210474224e-03 2.9180714391338963e-01 4.3676470879892965e-01  3.3739015846953272e-03 2.9175376898578154e-01 4.3673407883618864e-01  3.3731591225512740e-03 2.9168987351801179e-01 4.3671622965743795e-01  3.3723755332634850e-03 2.9161898056924518e-01 4.3670658514316729e-01  3.3715440469329291e-03 2.9154809084359468e-01 4.3668800468432728e-01  3.3706711375737276e-03 2.9147116091794339e-01 4.3667483625043502e-01  3.3697589387403542e-03 2.9138646512698924e-01 4.3667012316472786e-01  3.3688049440982939e-03 2.9129681662887164e-01 4.3666716366859015e-01  3.3678124124435571e-03 2.9120070909573137e-01 4.3667170918524251e-01  3.3667764012977001e-03 2.9110105452743951e-01 4.3667626383601460e-01  3.3657003168746581e-03 2.9099643838362810e-01 4.3668270237348183e-01  3.3645815642968399e-03 2.9088799300732504e-01 4.3668964969200147e-01  3.3634243991655551e-03 2.9077384788352334e-01 4.3670131141738849e-01  3.3622407723230222e-03 2.9065032622590903e-01 4.3672829703983684e-01  3.3610188813555384e-03 2.9052259547599363e-01 4.3675748613744869e-01  3.3597443427574791e-03 2.9039457849217387e-01 4.3677537511141379e-01  3.3584345555112325e-03 2.9026122791911585e-01 4.3679965234130230e-01  3.3570909813599907e-03 2.9012213158244476e-01 4.3682933372147931e-01  3.3557233181484673e-03 2.8997584501289420e-01 4.3687051041601094e-01  3.3542957691694766e-03 2.8983065706493888e-01 4.3689981438091130e-01  3.3528760208482414e-03 2.8967131858609751e-01 4.3695628745593235e-01  3.3513895912960175e-03 2.8951443291598844e-01 4.3699693507727067e-01  3.3498843109346353e-03 2.8935074205425443e-01 4.3704911311357958e-01  3.3483445404406467e-03 2.8918310227958305e-01 4.3710314592190597e-01  3.3467712750267766e-03 2.8901146790822857e-01 4.3715955509768051e-01  3.3451715312042582e-03 2.8883509233831067e-01 4.3722111886174642e-01  3.3435407165091423e-03 2.8865475806957153e-01 4.3728554155229427e-01  3.3418795309084503e-03 2.8847047145431060e-01 4.3735275483082586e-01  3.3401986117208957e-03 2.8828141682161956e-01 4.3742637678232360e-01  3.3384800635433065e-03 2.8808937994192768e-01 4.3749980124489801e-01  3.3367439524786898e-03 2.8789276550310466e-01 4.3757948007617353e-01  3.3349837455219208e-03 2.8769234823219514e-01 4.3766296215383915e-01  3.3332114996371598e-03 2.8748765892320660e-01 4.3775410647925689e-01  3.3313914503915105e-03 2.8728072234766105e-01 4.3784061235123806e-01  3.3295456613622785e-03 2.8707029148436919e-01 4.3792970587530200e-01  3.3277258124115544e-03 2.8685456634059020e-01 4.3803663922130015e-01  3.3258505810122995e-03 2.8663694168297804e-01 4.3813628010432071e-01  3.3239156556345807e-03 2.8641714164465709e-01 4.3822878544278510e-01  3.3219949232726424e-03 2.8619316713249798e-01 4.3833436236399592e-01  3.3200850662222195e-03 2.8596539842956747e-01 4.3845009795145889e-01  3.3181443399769961e-03 2.8573507793145753e-01 4.3856566303085098e-01  3.3161885402844828e-03 2.8550193882042890e-01 4.3868505036262390e-01  3.3142128250559879e-03 2.8526609431521238e-01 4.3880634296084919e-01  3.3122529882742184e-03 2.8502750697620477e-01 4.3893807421449060e-01  3.3102261638696048e-03 2.8478657180020017e-01 4.3906158445899274e-01  3.3082509372805574e-03 2.8454308380480814e-01 4.3920057879359625e-01  3.3062085561931889e-03 2.8429716434932828e-01 4.3933213112888042e-01  3.3041577117287682e-03 2.8404882451088553e-01 4.3946822771112309e-01  3.3021208076227217e-03 2.8379851282190849e-01 4.3961138044054099e-01  3.3001358129578912e-03 2.8354701382053710e-01 4.3976853586449777e-01  3.2980987699150269e-03 2.8329306980508800e-01 4.3992087456267287e-01  3.2959923671981527e-03 2.8303606824379163e-01 4.4006578184582162e-01  3.2939301280229994e-03 2.8277812541018504e-01 4.4022268939127807e-01  3.2919037939537293e-03 2.8251949275036886e-01 4.4038886963357121e-01  3.2898461926357987e-03 2.8225870509425105e-01 4.4055374803119329e-01  3.2877914069881879e-03 2.8199662250584395e-01 4.4072245819152067e-01  3.2857355705648425e-03 2.8173315102846530e-01 4.4089472035482669e-01  3.2836929044405020e-03 2.8146889705359773e-01 4.4107185398559506e-01  3.2816401791181818e-03 2.8120315992344758e-01 4.4125061127644405e-01  3.2795567074607314e-03 2.8093517686039599e-01 4.4142841094865815e-01  3.2775207512847114e-03 2.8066779167589850e-01 4.4161533370556327e-01  3.2755150732028935e-03 2.8040068010379093e-01 4.4180844149865967e-01  3.2734850490007028e-03 2.8013173563902521e-01 4.4200085781028220e-01  3.2714712408474346e-03 2.7986247492346694e-01 4.4219803309586403e-01  3.2694726283249557e-03 2.7959310695461848e-01 4.4239912143444510e-01  3.2674305855875507e-03 2.7932101308845869e-01 4.4259744124054007e-01  3.2654414087909065e-03 2.7905046769209951e-01 4.4280394828688596e-01  3.2635133052392983e-03 2.7878216902838543e-01 4.4301893145546178e-01  3.2615569520686176e-03 2.7851195653354832e-01 4.4323257563694007e-01  3.2596349085848857e-03 2.7824273174717884e-01 4.4345177943327230e-01  3.2577081336555075e-03 2.7797269597786883e-01 4.4367225581061398e-01  3.2557593663421901e-03 2.7770102119199586e-01 4.4389209484321407e-01  3.2539337443997195e-03 2.7743518454360533e-01 4.4412572813769058e-01  3.2520659178127739e-03 2.7716676098298548e-01 4.4435645923760253e-01  3.2502212821730247e-03 2.7689908373553834e-01 4.4459084681684746e-01  3.2484049914996704e-03 2.7663263285304884e-01 4.4482915030593717e-01  3.2465605414322271e-03 2.7636414096451356e-01 4.4506607787993624e-01  3.2448084773723678e-03 2.7610048866834003e-01 4.4531265727449876e-01  3.2430440262637633e-03 2.7583581938317731e-01 4.4555920611841054e-01  3.2412730915363426e-03 2.7557041517371422e-01 4.4580635257662665e-01  3.2396120786270608e-03 2.7531122496215071e-01 4.4606367955714465e-01  3.2379462303057435e-03 2.7505136198488439e-01 4.4632172835667744e-01  3.2362391093738135e-03 2.7478886262064023e-01 4.4657716713376583e-01  3.2346316845506752e-03 2.7453223534330135e-01 4.4684147371758692e-01  3.2330493030551153e-03 2.7427692649966523e-01 4.4710846064108251e-01  3.2314990822931776e-03 2.7402328095716366e-01 4.4737889901561095e-01  3.2299669317132130e-03 2.7377071125069552e-01 4.4765125863742994e-01  3.2284683934582763e-03 2.7352010248055209e-01 4.4792679529255308e-01  3.2270237764515054e-03 2.7327271308204837e-01 4.4820700077096326e-01  3.2255455579146596e-03 2.7302283081730538e-01 4.4848570536950416e-01  3.2241624179554611e-03 2.7277943061794058e-01 4.4877115012870172e-01  3.2228769804738050e-03 2.7254223903643937e-01 4.4906386429076361e-01  3.2215567894383155e-03 2.7230280123418127e-01 4.4935459146412859e-01  3.2202222450582229e-03 2.7206194222273045e-01 4.4964529799334446e-01  3.2189746421645419e-03 2.7182685213195940e-01 4.4994214738736849e-01  3.2177490781194560e-03 2.7159347287573837e-01 4.5024058207379375e-01  3.2165695439286619e-03 2.7136278300509620e-01 4.5054261106420046e-01  3.2154078244841836e-03 2.7113333720077537e-01 4.5084616096771607e-01  3.2143509100344110e-03 2.7091146740876809e-01 4.5115602499550167e-01  3.2134018133102011e-03 2.7069742490418941e-01 4.5147211065626636e-01  3.2123758389641217e-03 2.7047776287387498e-01 4.5178431635983002e-01  3.2113691477679797e-03 2.7025889198383052e-01 4.5209838359846805e-01  3.2105304952428845e-03 2.7005214831560476e-01 4.5242189480188399e-01  3.2096708983344181e-03 2.6984414852592703e-01 4.5274432829933392e-01  3.2087723731895066e-03 2.6963356119608350e-01 4.5306479189685062e-01  3.2080142522015868e-03 2.6943255570259128e-01 4.5339332164010271e-01  3.2072675505074866e-03 2.6923265792758544e-01 4.5372243969816206e-01  3.2065464691303698e-03 2.6903465872479454e-01 4.5405314503146788e-01  3.2058960772361170e-03 2.6884173306914561e-01 4.5438763741587462e-01  3.2052970753583942e-03 2.6865275475697076e-01 4.5472465449511668e-01  3.2047373691419284e-03 2.6846668303692961e-01 4.5506377132711179e-01  3.2042114916384845e-03 2.6828313879867155e-01 4.5540466441799488e-01  3.2037476182238639e-03 2.6810432542417356e-01 4.5574849849977667e-01  3.2029527190128304e-03 2.6775666341667653e-01 4.5644261606874809e-01  3.2026193732115696e-03 2.6758779682262201e-01 4.5679263949711668e-01  3.2023507920780326e-03 2.6742407453199663e-01 4.5714540640111267e-01  3.2021244449840910e-03 2.6726345420471476e-01 4.5750009566885513e-01  3.2019346306417563e-03 2.6710564637606171e-01 4.5785639816687645e-01  3.2018048465167928e-03 2.6695264917200623e-01 4.5821509478627603e-01  3.2017182946274206e-03 2.6680293469572353e-01 4.5857556617137263e-01  3.2016432475479974e-03 2.6665413430970997e-01 4.5893666767811020e-01  3.2016524288702229e-03 2.6651211809669828e-01 4.5930085538431326e-01  3.2016548022676412e-03 2.6636892277543817e-01 4.5966526530210899e-01  3.2018570781266347e-03 2.6624277750556347e-01 4.6003595758575283e-01  3.2020409474761290e-03 2.6611487363561537e-01 4.6040619637838776e-01  3.2021803835287021e-03 2.6598325191925770e-01 4.6077528164120574e-01  3.2024604411514477e-03 2.6586303972496500e-01 4.6114877124277953e-01  3.2028241917647260e-03 2.6574970947025273e-01 4.6152470439900789e-01  3.2031159740285027e-03 2.6563032195455583e-01 4.6189882461915072e-01  3.2035005984875479e-03 2.6551880580050446e-01 4.6227559229989107e-01  3.2039286076657593e-03 2.6541061093443491e-01 4.6265370551187113e-01  3.2044532793958952e-03 2.6531036337772307e-01 4.6303435767975176e-01  3.2049852699992444e-03 2.6521086928074472e-01 4.6341522539499086e-01  3.2054980950485907e-03 2.6510981156729341e-01 4.6379580576578083e-01  3.2061627961526965e-03 2.6502158726394809e-01 4.6417989467555576e-01  3.2068264620545308e-03 2.6493303493534365e-01 4.6456408184496822e-01  3.2075435094252856e-03 2.6484918512138667e-01 4.6494940460830519e-01  3.2082837271030138e-03 2.6476714089862996e-01 4.6533530551789715e-01  3.2091233927901710e-03 2.6469369322934599e-01 4.6572304872338133e-01  3.2099331834314886e-03 2.6461747971145011e-01 4.6611041767791928e-01  3.2108518362332981e-03 2.6455095325095956e-01 4.6649954740098143e-01  3.2118049878571268e-03 2.6448723082472630e-01 4.6688923808338939e-01  3.2126929957882709e-03 2.6441754049240096e-01 4.6727821068624498e-01  3.2137042581952104e-03 2.6435846992085898e-01 4.6766889029829911e-01  3.2148309040965655e-03 2.6431063794761128e-01 4.6806071782869613e-01  3.2159181512647125e-03 2.6425878736167990e-01 4.6845217764779878e-01  3.2170617740469188e-03 2.6421174842548756e-01 4.6884420523503484e-01  3.2182449570156780e-03 2.6416830807420250e-01 4.6923653137959237e-01  3.2194607853605456e-03 2.6412790421728788e-01 4.6962904831590985e-01  3.2206637931581294e-03 2.6408579331159293e-01 4.7002157273902334e-01  3.2220293725395296e-03 2.6405915360896071e-01 4.7041467536144621e-01  3.2233665080598334e-03 2.6402985176431321e-01 4.7080754106804051e-01  3.2246945641930991e-03 2.6399951161657004e-01 4.7120035142254879e-01  3.2261372041849901e-03 2.6398005446913370e-01 4.7159311024169431e-01  3.2275944780547662e-03 2.6396190624915222e-01 4.7198563407018446e-01  3.2290309329096839e-03 2.6394112533431990e-01 4.7237806476936894e-01  3.2305512265613325e-03 2.6392927895057511e-01 4.7277005180502185e-01  3.2320392539418631e-03 2.6391360609076819e-01 4.7316202056151285e-01  3.2336646905852294e-03 2.6391149250761220e-01 4.7355283911348844e-01  3.2352753450883946e-03 2.6390818941913663e-01 4.7394342923971811e-01  3.2368480401732736e-03 2.6390071748997751e-01 4.7433409935883769e-01  3.2385354743875582e-03 2.6390484619362703e-01 4.7472322347052054e-01  3.2402123599316796e-03 2.6390810403696924e-01 4.7511209295905293e-01  3.2420025494854644e-03 2.6392277756360127e-01 4.7549877590627943e-01  3.2437644163569746e-03 2.6393446643009166e-01 4.7588523096964203e-01  3.2454309565067689e-03 2.6393675938979222e-01 4.7627308948992936e-01  3.2472462247036373e-03 2.6395411818522785e-01 4.7665752270441708e-01  3.2490678424168229e-03 2.6397255390295532e-01 4.7704122433558738e-01  3.2508534515603349e-03 2.6398691839298610e-01 4.7742507680156326e-01  3.2527456902505213e-03 2.6401295577225709e-01 4.7780563922841640e-01  3.2546286397709292e-03 2.6403825521788388e-01 4.7818557644870147e-01  3.2565096971402881e-03 2.6406332241492753e-01 4.7856468086221032e-01  3.2583711490885387e-03 2.6408617163433851e-01 4.7894356218533191e-01  3.2602983875324337e-03 2.6411685703308335e-01 4.7931949682994890e-01  3.2622883239382923e-03 2.6415497842956492e-01 4.7969218987358114e-01  3.2642703299886810e-03 2.6419242585577546e-01 4.8006382972916373e-01  3.2662327870946408e-03 2.6422776612884075e-01 4.8043493940427373e-01  3.2682173142594461e-03 2.6426621428104780e-01 4.8080395032432538e-01  3.2702108271423268e-03 2.6430584632491039e-01 4.8117109438972716e-01  3.2722239430950074e-03 2.6434827261289129e-01 4.8153584492864965e-01  3.2742458840250492e-03 2.6439222023618086e-01 4.8189855963094247e-01  3.2762332734877319e-03 2.6443223281068567e-01 4.8226143438990982e-01  3.2782820268578076e-03 2.6448082876711304e-01 4.8261940236225653e-01  3.2803939088821240e-03 2.6453768809978556e-01 4.8297143691958017e-01  3.2824326487410449e-03 2.6458616154913700e-01 4.8332573624998931e-01  3.2844295079592495e-03 2.6462995980288839e-01 4.8368080719543544e-01  3.2864854945936291e-03 2.6468191128874963e-01 4.8402959866400641e-01  3.2885630735159069e-03 2.6473776240987290e-01 4.8437449263632049e-01  3.2906116934719042e-03 2.6479073073529091e-01 4.8471892730924659e-01  3.2926674565876661e-03 2.6484568795574476e-01 4.8506011476031791e-01  3.2947258016251379e-03 2.6490200059044150e-01 4.8539814993714664e-01  3.2967780604073477e-03 2.6495852742544190e-01 4.8573356716337268e-01  3.2988271673984985e-03 2.6501591072603109e-01 4.8606599907473602e-01  3.3008730859165961e-03 2.6507421154139515e-01 4.8639534054759070e-01  3.3029138704718172e-03 2.6513322775245501e-01 4.8672156980379194e-01  3.3049455929927475e-03 2.6519245609464281e-01 4.8704488423230052e-01  3.3069688857636581e-03 2.6525206080954000e-01 4.8736503903791012e-01  3.3089824261968246e-03 2.6531192576528356e-01 4.8768201965336916e-01  3.3109855258678768e-03 2.6537206458115487e-01 4.8799572763518606e-01  3.3129787908063456e-03 2.6543262235033216e-01 4.8830584870334059e-01  3.3149576593211926e-03 2.6549299367630219e-01 4.8861280798599738e-01  3.3169238347070828e-03 2.6555356427814369e-01 4.8891618166588935e-01  3.3188774646825420e-03 2.6561447521901749e-01 4.8921570966674877e-01  3.3208154101355089e-03 2.6567529836075099e-01 4.8951162524301173e-01  3.3227383012951182e-03 2.6573628297209656e-01 4.8980360296404662e-01  3.3246428410452456e-03 2.6579690381795401e-01 4.9009190681307019e-01  3.3265281902600569e-03 2.6585716474072124e-01 4.9037651971758239e-01  3.3283957792345602e-03 2.6591744641845350e-01 4.9065688357171389e-01  3.3302425698009926e-03 2.6597725617515350e-01 4.9093328199220920e-01  3.3320686519888979e-03 2.6603681025818238e-01 4.9120547335319986e-01  3.3338796711202085e-03 2.6609748637156577e-01 4.9147186304766260e-01  3.3356520283970032e-03 2.6615441859624456e-01 4.9173788006095248e-01  3.3373962680263301e-03 2.6620976512875311e-01 4.9200087798612763e-01  3.3391267905729140e-03 2.6626688139355037e-01 4.9225664045823936e-01  3.3408305384878792e-03 2.6632300723337060e-01 4.9250804600377457e-01  3.3425120539201337e-03 2.6637968050382482e-01 4.9275388338277809e-01  3.3441524195301493e-03 2.6643195990352458e-01 4.9299930867924896e-01  3.3457454765938679e-03 2.6647748946768274e-01 4.9324709729388228e-01  3.3473623312057282e-03 2.6653810246710707e-01 4.9347199450278639e-01  3.3489262085918681e-03 2.6659090462645002e-01 4.9370043064532149e-01  3.3504659405268525e-03 2.6664469059548906e-01 4.9392015245033438e-01  3.3519587887062977e-03 2.6669292458410976e-01 4.9414217040629554e-01  3.3534089823902794e-03 2.6673658892856222e-01 4.9436446084833491e-01  3.3548452707919453e-03 2.6678531053471233e-01 4.9457261915577533e-01  3.3562413010254795e-03 2.6683084936298485e-01 4.9477926604110273e-01  3.3576023205203818e-03 2.6687491802612218e-01 4.9498121664009848e-01  3.3589305628318861e-03 2.6691873564655327e-01 4.9517668063133791e-01  3.3602202180780115e-03 2.6696008716647873e-01 4.9536835439914112e-01  3.3614727263445812e-03 2.6699992616114210e-01 4.9555585108549771e-01  3.3626927067957552e-03 2.6704057018997329e-01 4.9573389327447537e-01  3.3638684775120871e-03 2.6707659777669224e-01 4.9591283455307272e-01  3.3650024191955496e-03 2.6710919695724022e-01 4.9608992570362592e-01  3.3661117938706309e-03 2.6714864303135449e-01 4.9624684599976732e-01  3.3671649381143477e-03 2.6717549152540976e-01 4.9641739799152795e-01  3.3681941011339668e-03 2.6721334088412724e-01 4.9656249694731397e-01  3.3691688207011274e-03 2.6723873463267706e-01 4.9672092441739185e-01  3.3701079977119953e-03 2.6726640450919192e-01 4.9686606616523132e-01  3.3710036832982492e-03 2.6729038976642300e-01 4.9701001407359857e-01  3.3718596073581079e-03 2.6731485375411657e-01 4.9714440989391756e-01  3.3726718204077208e-03 2.6733465115064092e-01 4.9727732602619867e-01  3.3734480259866753e-03 2.6736412787581632e-01 4.9738714827775005e-01  3.3741719907588136e-03 2.6737852943217866e-01 4.9751530722082205e-01  3.3748571259961187e-03 2.6739709397287137e-01 4.9762612366827058e-01  3.3760938250585312e-03 2.6742528209864624e-01 4.9783801752397372e-01  3.3766457665192224e-03 2.6743582464408772e-01 4.9793740939262032e-01  3.3771541228009199e-03 2.6744686707097709e-01 4.9802582068485324e-01  3.3776176717756892e-03 2.6745437516115389e-01 4.9811305302302766e-01  3.3780367434603580e-03 2.6746151641172589e-01 4.9819172431989428e-01  3.3784109911605821e-03 2.6746125929047987e-01 4.9827452685208257e-01  3.3787397158336788e-03 2.6746729670375258e-01 4.9833678233203160e-01  3.3790233349898979e-03 2.6746122286000296e-01 4.9841368571345090e-01  3.3792625319398152e-03 2.6746114810743860e-01 4.9846950795947259e-01  3.3794564836900111e-03 2.6745830029362810e-01 4.9852156103885537e-01  3.3796052157663244e-03 2.6745426901851765e-01 4.9856561930450499e-01  3.3797086335306471e-03 2.6744775997715853e-01 4.9860558154397550e-01  3.3797677961519678e-03 2.6743872298678573e-01 4.9864306588441093e-01  3.3797814656896588e-03 2.6742671378889593e-01 4.9867511148957516e-01  3.3797501545865132e-03 2.6741031473059068e-01 4.9870734373711784e-01  3.3796743827157008e-03 2.6739576950770438e-01 4.9872659843114520e-01  3.3795535917742533e-03 2.6737860291971399e-01 4.9874136488507415e-01  3.3793885424732192e-03 2.6736053172171875e-01 4.9874930025184472e-01  3.3791809426037961e-03 2.6734525427374212e-01 4.9874240490683597e-01  3.3789269571373412e-03 2.6732034360618745e-01 4.9874572858809330e-01  3.3786303141