<?xml version="1.0"?>
<VTKFile type="UnstructuredGrid"  version="0.1"  >
<UnstructuredGrid>
<Piece  NumberOfPoints="4940" NumberOfCells="9650">
<Points>
<DataArray  type="Float64"  NumberOfComponents="3"  format="ascii">500 250 0  0 250 0  250 500 0  250 0 0  256.8885856082646 499.9050767557906 0  263.7719401218049 499.6203791065173 0  270.6448364229772 499.1461232471188 0  277.5020553257866 498.4826693209355 0  284.3383895508592 497.6305211460281 0  291.1486476865662 496.5903258312597 0  297.9276581259182 495.3628732847843 0  304.6702729675493 493.9490956196674 0  311.3713719748657 492.3500664368026 0  318.0258664141369 490.5670000199653 0  324.6287029687753 488.6012504015818 0  331.1748675330201 486.4543103455647 0  337.6593890460416 484.1278102064655 0  344.0773432429536 481.6235166997244 0  350.4238564271474 478.9433315480048 0  356.694109139292 476.0892900492477 0  362.88333985546 473.0635595140469 0  368.9868485575419 469.8684376402048 0  375.0000003153078 466.5063507640667 0  380.9182288257928 462.9798520074548 0  386.7370398729688 459.2916193419558 0  392.4520147244077 455.444453565817 0  398.0588135356345 451.4412761437442 0  403.5531785622926 447.285127045646 0  408.9309374414144 442.9791624087773 0  414.1880064015299 438.5266521049243 0  419.3203932989752 433.9309773069245 0  424.324200661095 429.1956279150535 0  429.1956286596235 424.3241998957182 0  433.9309780058756 419.3203925397119 0  438.5266527445345 414.1880056671062 0  442.9791630130591 408.9309367076756 0  447.2851276060475 403.5531778422888 0  451.4412766621026 398.0588128303826 0  455.4444540361634 392.4520140460735 0  459.2916197786263 386.7370392045948 0  462.9798524073514 380.9182281752347 0  466.5063511234856 374.9999996927758 0  469.8684379657123 368.9868479560565 0  473.0635598144817 362.8833392617846 0  476.0892903190255 356.6941085676214 0  478.9433317963513 350.4238558609745 0  481.6235169154735 344.0773427117675 0  484.12781039012 337.6593885555221 0  486.4543105028062 331.1748670749914 0  488.601250531677 324.6287025528375 0  490.5670001317469 318.0258660188321 0  492.3500665291326 311.3713716102628 0  493.949095695951 304.6702726271575 0  495.3628733416623 297.9276578347343 0  496.5903258712341 291.1486474470129 0  497.6305211749058 284.3383893426084 0  498.4826693388848 277.502055163614 0  499.1461232580606 270.6448362909296 0  499.6203791109319 263.7719400417897 0  499.9050767571306 256.8885855596534 0  499.9050767559877 243.1114143988867 0  499.6203791069493 236.2280598860241 0  499.1461232485393 229.3551635941651 0  498.4826693235677 222.4979446979962 0  497.6305211491849 215.6616104719064 0  496.5903258357701 208.8513523404629 0  495.3628732906988 202.0723419043604 0  493.9490956264813 195.3297270628552 0  492.3500664487791 188.6286280724281 0  490.5670000344809 181.9741336371959 0  488.6012504175981 175.3712970824318 0  486.4543103623226 168.8251325157939 0  484.1278102222298 162.3406109960628 0  481.6235167152198 155.9226567951971 0  478.9433315621651 149.5761436051346 0  476.0892900516498 143.3058908657982 0  473.063559513628 137.1166601437124 0  469.8684376406648 131.0131514433083 0  466.5063507675389 124.9999996907064 0  462.9798520124137 119.0817711822745 0  459.2916193464549 113.2629601339176 0  455.4444535642773 107.5479852733717 0  451.4412761528674 101.9411864767781 0  447.2851270583545 96.44682145403524 0  442.9791624165781 91.06906256805769 0  438.5266521117469 85.81199360630404 0  433.9309773156125 80.67960671046254 0  429.1956279150353 75.67579933888632 0  424.3241998888952 70.80437133373906 0  419.3203925223282 66.06902197812161 0  414.1880056411937 61.47334723289828 0  408.9309366751728 57.0208369601728 0  403.5531778009394 52.71487236176898 0  398.058812796452 48.55872331295853 0  392.4520140187753 44.55554594490843 0  386.7370391799677 40.70838020528396 0  380.9182281475119 37.02014757560744 0  374.9999996718656 33.49364886444181 0  368.9868479340393 30.13156202237255 0  362.8833392380029 26.93644017348339 0  356.6941085456942 23.91070967062674 0  350.4238558420009 21.0566681953261 0  344.0773426899492 18.37648307566465 0  337.6593885328982 15.87218960140942 0  331.1748670549786 13.54568949032341 0  324.6287025315056 11.39874946165088 0  318.0258660010876 9.432999863235466 0  311.3713716017894 7.649933468721599 0  304.6702726190621 6.050904302234756 0  297.9276578269805 4.637126656823085 0  291.148647441857 3.409674127905504 0  284.3383893425031 2.369478825079682 0  277.502055159398 1.517330660648639 0  270.6448362875833 0.853876741662134 0  263.7719400401456 0.3796208889774277 0  256.8885855592052 0.09492324285704967 0  243.1114143979462 0.09492324403817065 0  236.2280598850882 0.3796208931023841 0  229.3551635938215 0.8538767514891958 0  222.4979446968584 1.517330676558146 0  215.6616104703111 2.369478851036291 0  208.8513523382973 3.409674164591252 0  202.0723419066374 4.637126708856528 0  195.3297270659513 6.050904372824903 0  188.628628074828 7.649933550613184 0  181.9741336377093 9.432999965373938 0  175.3712970793675 11.39874958336037 0  168.8251325057572 13.54568964112298 0  162.340610986655 15.87218978129263 0  155.9226567874317 18.37648328793418 0  149.576143602509 21.05666843898663 0  143.3058908718157 23.91070994551046 0  137.1166601505524 26.93644048291054 0  131.0131514451933 30.13156235831508 0  124.9999996848412 33.49364923584736 0  119.0817711715717 37.0201479941652 0  113.2629601211624 40.70838066187849 0  107.5479852622251 44.55554644345162 0  101.9411864693332 48.55872385260452 0  96.44682143286516 52.71487295812284 0  91.06906254351222 57.02083760363669 0  85.81199358272519 61.4733479087879 0  80.67960667988106 66.06902271253972 0  75.67579930062769 70.80437212218331 0  70.80437129287643 75.67580015310926 0  66.06902193673014 80.67960752263491 0  61.47334718684866 85.81199441168215 0  57.02083692524275 91.0690633672404 0  52.71487232786438 96.44682224262129 0  48.55872328070024 101.941187247437 0  44.55554591578033 107.5479860232332 0  40.7083801742321 113.2629608675606 0  37.02014754791168 119.0817718975441 0  33.49364883372994 125.000000381329 0  30.13156199866361 131.0131521097709 0  26.9364401549829 137.1166607985551 0  23.91070965524918 143.3058914868915 0  21.05666818346614 149.576144185037 0  18.37648306853811 155.9226573275967 0  15.8721895918909 162.3406114925245 0  13.54568948170046 168.8251329701392 0  11.39874945301878 175.3712974960928 0  9.432999857087736 181.9741340206533 0  7.649933466342702 188.6286284076045 0  6.050904301250966 195.3297273853278 0  4.637126656808988 202.0723421730917 0  3.409674127767772 208.8513525589684 0  2.369478824521138 215.6616106615248 0  1.517330660909465 222.4979448382452 0  0.8538767414496533 229.355163714981 0  0.3796208887135322 236.2280599646376 0  0.09492324266324204 243.1114144478261 0  0.0949232442452228 256.8885856095658 0  0.3796208935834784 263.7719401236316 0  0.8538767530323526 270.6448364248016 0  1.517330679476544 277.5020553295092 0  2.369478854618649 284.3383895555228 0  3.409674170191892 291.1486476952655 0  4.6371267162381 297.9276581311522 0  6.050904381420935 304.6702729724059 0  7.649933562385399 311.3713719716595 0  9.43299997979841 318.0258664133013 0  11.3987495994252 324.6287029719946 0  13.54568965885832 331.174867545904 0  15.87218979367188 337.6593890464085 0  18.37648329843151 344.0773432384132 0  21.05666844777872 350.423856417535 0  23.91070995156048 356.6941091410045 0  26.93644048988043 362.8833398632205 0  30.13156235982007 368.9868485575877 0  33.49364924138357 375.0000003247478 0  37.0201480006036 380.9182288389023 0  40.70838066758398 386.7370398875706 0  44.55554644477201 392.4520147396792 0  48.55872386086904 398.0588135419111 0  52.71487295981296 403.5531785693063 0  57.02083760525949 408.9309374584583 0  61.47334790862246 414.1880064170849 0  66.06902271205095 419.320393319588 0  70.80437211216579 424.3242006890749 0  75.67580013809859 429.195628692521 0  80.6796075127923 433.930978054209 0  85.81199439754931 438.5266528008431 0  91.06906334717917 442.9791630582355 0  96.44682221438322 447.2851276501571 0  101.9411872243843 451.441276702356 0  107.5479859945825 455.4444540643537 0  113.2629608446994 459.2916198108319 0  119.0817718768376 462.9798524393601 0  125.0000003647644 466.5063511567065 0  131.0131521012763 469.8684379967393 0  137.1166607840049 473.0635598376539 0  143.3058914748804 476.0892903390826 0  149.5761441732679 478.9433318113714 0  155.9226573130112 481.6235169255377 0  162.3406114779862 484.1278104026658 0  168.8251329570439 486.4543105138039 0  175.3712974805475 488.601250542119 0  181.9741340135204 490.5670001408953 0  188.6286284005059 492.3500665318597 0  195.3297273788229 493.9490956972913 0  202.0723421640089 495.3628733414168 0  208.8513525529672 496.5903258712308 0  215.6616106544547 497.6305211744985 0  222.4979448327038 498.4826693384772 0  229.3551637102845 499.1461232581612 0  236.2280599621369 499.6203791111485 0  243.1114144470173 499.9050767573145 0  155.2373389820306 474.8197567317462 0  25.36256300907667 153.9152755065208 0  432.3709625126712 412.6214396304305 0  6.013151705810699 246.637913163471 0  246.6379131630491 493.986848294322 0  338.6995838441862 22.68244767887072 0  477.3175523131281 338.6995838660569 0  493.9868482700757 246.6379131399102 0  246.6201155078769 6.218451882810491 0  417.6179310263282 72.7156044707053 0  102.2232990934413 445.0100869616822 0  63.66330858966404 92.20354579482142 0  391.3105220491464 50.73522820883105 0  72.79295043967942 418.0702734974704 0  448.290574428537 108.25674339002 0  402.4604651193511 440.7462829841712 0  97.55317348421397 59.11376320116034 0  136.7376477664901 33.58246472647134 0  363.3288394375288 465.6947312928271 0  44.0678766556007 381.0860953771871 0  469.6905266180034 142.3890690100806 0  22.68244791668644 338.6995843487432 0  338.699584349159 477.317552078365 0  173.389488083762 18.6681884918202 0  483.4809734778481 179.7121987795732 0  13.50237455842738 306.4709525540879 0  305.9825168523021 487.24416992
[...]
<PointData  Vectors="f_12"> 
<DataArray  type="Float64"  Name="f_12"  NumberOfComponents="3" format="ascii">5.0898216179198252e-01 1.6317749277944640e-01 5.4382760401292973e-01  4.9035501302875023e-01 1.7114109931631491e-01 4.4751544311158492e-01  5.2106247779649861e-01 1.7605367249521556e-01 5.9112616796117412e-01  4.9945890508632257e-01 1.6400431635155902e-01 4.9824780874769681e-01  5.2124729708864792e-01 1.7632026858072791e-01 5.9177823873107904e-01  5.2141711101266697e-01 1.7656700140520987e-01 5.9237544705351242e-01  5.2157825260629487e-01 1.7680267656402041e-01 5.9294051365234590e-01  5.2172600319607954e-01 1.7702006120190278e-01 5.9345721859394318e-01  5.2186233745026422e-01 1.7722179642488936e-01 5.9393279684706679e-01  5.2198703160480198e-01 1.7740724207452321e-01 5.9436674893184938e-01  5.2210014645596770e-01 1.7757624505996791e-01 5.9475957899276566e-01  5.2220211589329335e-01 1.7772924187513894e-01 5.9511301695103647e-01  5.2229239554609497e-01 1.7786521564542784e-01 5.9542538152632063e-01  5.2237051108524213e-01 1.7798326672452783e-01 5.9569525895650788e-01  5.2243269372276391e-01 1.7807752551154535e-01 5.9590979390441279e-01  5.2249145913828232e-01 1.7816679581575293e-01 5.9611232894291177e-01  5.2252695608803579e-01 1.7822089243991848e-01 5.9623452966507384e-01  5.2255728179032834e-01 1.7826717114737675e-01 5.9633886966142435e-01  5.2257386525794569e-01 1.7829257441559848e-01 5.9639587257103388e-01  5.2257887963955629e-01 1.7830036217004530e-01 5.9641306389222914e-01  5.2257288067523655e-01 1.7829136704488413e-01 5.9639235121643697e-01  5.2255039491729205e-01 1.7825730050830751e-01 5.9631490229774675e-01  5.2251484239617185e-01 1.7820339622385839e-01 5.9619243752400564e-01  5.2247109760935939e-01 1.7813712125517656e-01 5.9604164403085702e-01  5.2241394347704728e-01 1.7805064777322785e-01 5.9584448206546903e-01  5.2234095410794690e-01 1.7794047427690038e-01 5.9559239583414580e-01  5.2225156747783175e-01 1.7780591961645167e-01 5.9528325431628737e-01  5.2215387114623124e-01 1.7765935206576580e-01 5.9494481993275705e-01  5.2204281727552670e-01 1.7749340179922887e-01 5.9455939275591407e-01  5.2191303171050552e-01 1.7730032957220340e-01 5.9410800435216626e-01  5.2177290934389664e-01 1.7709295202016398e-01 5.9361951497109100e-01  5.2161701980293662e-01 1.7686357954609100e-01 5.9307459811016860e-01  5.2144630829668814e-01 1.7661395679298200e-01 5.9247620980933391e-01  5.2126324152308490e-01 1.7634811864891878e-01 5.9183249074446842e-01  5.2106009098022898e-01 1.7605538508389007e-01 5.9111569873650982e-01  5.2084286871245589e-01 1.7574497996325089e-01 5.9034650130313659e-01  5.2061389543971426e-01 1.7542071087603853e-01 5.8953250311671623e-01  5.2036468707672978e-01 1.7507125612479099e-01 5.8864287107381441e-01  5.2009471346418579e-01 1.7469677165852263e-01 5.8767479608690332e-01  5.1981137444897696e-01 1.7430826184526318e-01 5.8665396278770843e-01  5.1951454447096368e-01 1.7390627728118241e-01 5.8557917061121545e-01  5.1919619439313258e-01 1.7348089978631989e-01 5.8442037055270202e-01  5.1885653819102473e-01 1.7303351233896369e-01 5.8317712977504477e-01  5.1850041821151072e-01 1.7257183361702128e-01 5.8186592411824323e-01  5.1812322612850215e-01 1.7209103621380509e-01 5.8046849163969416e-01  5.1772635714482329e-01 1.7159421708354702e-01 5.7898861990373507e-01  5.1730988646831833e-01 1.7108297883581236e-01 5.7742505715392600e-01  5.1687403178441649e-01 1.7055912276148774e-01 5.7577726116404826e-01  5.1641054993190161e-01 1.7001486714188055e-01 5.7401160016969055e-01  5.1592811149350626e-01 1.6946197595635792e-01 5.7215969416497259e-01  5.1542258716531419e-01 1.6889835853271604e-01 5.7020315615724726e-01  5.1489444929633510e-01 1.6832611536608411e-01 5.6814199433834534e-01  5.1434285981008909e-01 1.6774740375388009e-01 5.6597028592828735e-01  5.1376367410114954e-01 1.6716044361410487e-01 5.6366900569448664e-01  5.1316071602396796e-01 1.6657231711127890e-01 5.6125031446999307e-01  5.1253425310691358e-01 1.6598660885126645e-01 5.5871239031920095e-01  5.1187952867489361e-01 1.6540213383183405e-01 5.5603249777386521e-01  5.1119917942223281e-01 1.6482551845127699e-01 5.5321801624499600e-01  5.1049439287078824e-01 1.6426121424959556e-01 5.5026954048720067e-01  5.0976909264582471e-01 1.6371372035896398e-01 5.4720519756465391e-01  5.0820160033052064e-01 1.6267540547432138e-01 5.4044469921516081e-01  5.0738620656303890e-01 1.6220696381132588e-01 5.3686237259275960e-01  5.0654442462878602e-01 1.6177954983332271e-01 5.3311396519843035e-01  5.0566978506011551e-01 1.6139626391020803e-01 5.2916337913071521e-01  5.0476981835797829e-01 1.6107268143256670e-01 5.2503858682025184e-01  5.0384444541550810e-01 1.6081382900996449e-01 5.2073217751194589e-01  5.0289244476463590e-01 1.6063612216098230e-01 5.1622897033918103e-01  5.0191568150958421e-01 1.6054855921535482e-01 5.1153007165318420e-01  5.0091762951339125e-01 1.6056668051881118e-01 5.0664249168050512e-01  4.9990024274723421e-01 1.6070621229089604e-01 5.0156573197025123e-01  4.9885948274063913e-01 1.6098563105641572e-01 4.9626717726630137e-01  4.9780934022355783e-01 1.6142321028747392e-01 4.9080582925816552e-01  4.9674489592308835e-01 1.6204038600587156e-01 4.8514375385295017e-01  4.9567212750139750e-01 1.6286462310241612e-01 4.7929485568077151e-01  4.9459738827608835e-01 1.6392083289588283e-01 4.7327673890335747e-01  4.9352844942322305e-01 1.6523851677322623e-01 4.6711309601618367e-01  4.9247192094706749e-01 1.6684710413388029e-01 4.6082139354374918e-01  4.9143590184303143e-01 1.6878366101331774e-01 4.5442432309977793e-01  4.9042852401176601e-01 1.7108605247418901e-01 4.4794431924127348e-01  4.8946161629062412e-01 1.7378743940559105e-01 4.4142631820355221e-01  4.8854966499274699e-01 1.7690753999362227e-01 4.3493793711889223e-01  4.8769816914342834e-01 1.8053623550725281e-01 4.2846177779432698e-01  4.8692313330653320e-01 1.8468276103560149e-01 4.2208019539159730e-01  4.8623729598767113e-01 1.8938384141587922e-01 4.1584353502956256e-01  4.8565410834452727e-01 1.9468979386889670e-01 4.0979832512111958e-01  4.8518714866025076e-01 2.0063199258701711e-01 4.0400219008069116e-01  4.8484874202694228e-01 2.0724619131175306e-01 3.9850255393525585e-01  4.8465165326928789e-01 2.1456035340192192e-01 3.9335274445226770e-01  4.8460574606203904e-01 2.2261049585514309e-01 3.8858253633426076e-01  4.8472499795208684e-01 2.3142383625122379e-01 3.8424842690318456e-01  4.8501813958517320e-01 2.4100950103177607e-01 3.8038406340148789e-01  4.8549387706068436e-01 2.5136904313052250e-01 3.7702346012075888e-01  4.8615829354106721e-01 2.6244503004908698e-01 3.7421976423367298e-01  4.8702392564545965e-01 2.7432788668632002e-01 3.7196534322457508e-01  4.8809151108341281e-01 2.8692055832534757e-01 3.7029609633421995e-01  4.8933654743383276e-01 2.9989342038423156e-01 3.6925052914958206e-01  4.9075134236142437e-01 3.1319257457641259e-01 3.6878855416035378e-01  4.9231753285220314e-01 3.2665281411457620e-01 3.6888532650011668e-01  4.9393532374099519e-01 3.3952769655436116e-01 3.6945340973486784e-01  4.9555560194158627e-01 3.5155850921284237e-01 3.7039978140347207e-01  4.9714176088606266e-01 3.6263020600512552e-01 3.7161773950523286e-01  4.9846469277031846e-01 3.7141467563654662e-01 3.7281038438926256e-01  4.9944868901784228e-01 3.7770691574946691e-01 3.7378826910407925e-01  4.9992489242177118e-01 3.8063385646876480e-01 3.7431984723975509e-01  4.9978551964301016e-01 3.7964743671006046e-01 3.7425628976528541e-01  4.9892666329704954e-01 3.7400314761697651e-01 3.7353197742739708e-01  4.9736185442441205e-01 3.6335469925914299e-01 3.7233216301553640e-01  4.9518672401731101e-01 3.4754095130004781e-01 3.7106053685969592e-01  4.9256509205453558e-01 3.2647371589277119e-01 3.7040228674869974e-01  4.8983440747066137e-01 3.0116776293443648e-01 3.7128343786393625e-01  4.8742302536582299e-01 2.7334881888159979e-01 3.7488618877063912e-01  4.8582060804529265e-01 2.4540756426324314e-01 3.8247686449967389e-01  4.8539982337376508e-01 2.1948864083206529e-01 3.9496846243211631e-01  4.8648491441432429e-01 1.9734262360007948e-01 4.1320865020341080e-01  4.8922024132112835e-01 1.8044500577405856e-01 4.3704727722101433e-01  4.9362468455927083e-01 1.6928346622124651e-01 4.6602437265110180e-01  5.0635267587113431e-01 1.6483454634833930e-01 5.3123130922698014e-01  5.1382381916671149e-01 1.6899155805865571e-01 5.6374316625469345e-01  5.2116222795290579e-01 1.7797653382508563e-01 5.9098973872039973e-01  5.2765227900003697e-01 1.8823425469459257e-01 6.1264053645628280e-01  5.3292396429465716e-01 1.9825690019072834e-01 6.2825975907122822e-01  5.3661555768798697e-01 2.0621635277553338e-01 6.3813778536965471e-01  5.3868444858995213e-01 2.1102284981744762e-01 6.4327492499843852e-01  5.3903887623412183e-01 2.1187054866026295e-01 6.4412930887724373e-01  5.3773870035880533e-01 2.0878651932031467e-01 6.4096594271942187e-01  5.3487002034252529e-01 2.0232259206310771e-01 6.3358650344489498e-01  5.3044842556813476e-01 1.9328977697160563e-01 6.2116417276603186e-01  5.2477448439282015e-01 1.8331945945593764e-01 6.0337542656616661e-01  5.1824143141109380e-01 1.7406635179635527e-01 5.8044356487600401e-01  5.1134703578088969e-01 1.6704675476795913e-01 5.5327730607100079e-01  5.0454786293317244e-01 1.6344346823232811e-01 5.2329584134499507e-01  4.9836761489731179e-01 1.6402140968993745e-01 4.9274535924019858e-01  4.9323640624241072e-01 1.6915417785565134e-01 4.6400386044282882e-01  4.8934987510531675e-01 1.7864804675065443e-01 4.3862129742152001e-01  4.8677285456500435e-01 1.9210517129971785e-01 4.1755892668067462e-01  4.8542271596368675e-01 2.0870927772185063e-01 4.0107330425118853e-01  4.8513307914223325e-01 2.2750444251214763e-01 3.8891484292127138e-01  4.8563475017518454e-01 2.4696950537624968e-01 3.8050679391289743e-01  4.8663067936355692e-01 2.6552710427909265e-01 3.7513244134183121e-01  4.8784178280302742e-01 2.8201936516728110e-01 3.7196867264004763e-01  4.8903533953063766e-01 2.9566414529775120e-01 3.7025713169364438e-01  4.9003326823156884e-01 3.0591930503450920e-01 3.6942660020883095e-01  4.9073731096329060e-01 3.1271764162833360e-01 3.6905757636154540e-01  4.9110234616684612e-01 3.1616926221896763e-01 3.6889295948277950e-01  4.9114654467264079e-01 3.1668375591172321e-01 3.6880636204666478e-01  4.9091247977229407e-01 3.1469608096760687e-01 3.6876292352664780e-01  4.9046312002070941e-01 3.1070112236965025e-01 3.6878534348226832e-01  4.8985784240030705e-01 3.0510629178875132e-01 3.6892686739352237e-01  4.8916712458266098e-01 2.9841862857676160e-01 3.6923941209596212e-01  4.8843707353774141e-01 2.9094619642527064e-01 3.6977559769926360e-01  4.8774133441699719e-01 2.8329423020486638e-01 3.7056130109216628e-01  4.8708464061658979e-01 2.7547469125511465e-01 3.7162076940024796e-01  4.8648967816664201e-01 2.6769166258787280e-01 3.7295496182499682e-01  4.8596688011898898e-01 2.6003914480319718e-01 3.7457126451881573e-01  4.8552173800348658e-01 2.5257774783187359e-01 3.7646776764342937e-01  4.8515988814965216e-01 2.4536844441733688e-01 3.7864510873248325e-01  4.8488502247084542e-01 2.3850353893593931e-01 3.8107539371064097e-01  4.8469417149008986e-01 2.3196503140509472e-01 3.8375632745909521e-01  4.8458599224599713e-01 2.2568655143050068e-01 3.8672179941659462e-01  4.8455963094112853e-01 2.1975279140126971e-01 3.8992113502729525e-01  4.8461389624212581e-01 2.1415555491730345e-01 3.9335480415984925e-01  4.8474601471985307e-01 2.0886834569177518e-01 3.9702353225445791e-01  4.8495523431657517e-01 2.0387334960389267e-01 4.0093368445209865e-01  4.8523650772213739e-01 1.9925417449180849e-01 4.0501138407017123e-01  4.8558961964987712e-01 1.9492076788422960e-01 4.0930558514269100e-01  4.8600524130571604e-01 1.9091919407860622e-01 4.1373867799825220e-01  4.8648786624892448e-01 1.8721425729300162e-01 4.1835475191479615e-01  4.8702416727284359e-01 1.8382085992522340e-01 4.2307143936498298e-01  4.8761060871980788e-01 1.8073854859263225e-01 4.2787000220444954e-01  4.8824262386547196e-01 1.7794207066102111e-01 4.3273818846758277e-01  4.8891520616655487e-01 1.7541833662607650e-01 4.3765549318997737e-01  4.8962047101188066e-01 1.7315769446497259e-01 4.4258396785869925e-01  4.9111259689131936e-01 1.6935475721508422e-01 4.5242363895458182e-01  4.9188644862977693e-01 1.6778653947121203e-01 4.5727915326192697e-01  4.9267581077586220e-01 1.6641420793830219e-01 4.6209003578494184e-01  4.9347359756914477e-01 1.6522554931623379e-01 4.6682521262665544e-01  4.9427688412913484e-01 1.6420519332473621e-01 4.7147837470444992e-01  4.9508267629405805e-01 1.6333818344423201e-01 4.7604216641232372e-01  4.9588780393255050e-01 1.6261176374659939e-01 4.8050761323741409e-01  4.9668981395865552e-01 1.6201271375985346e-01 4.8486956671079107e-01  4.9748677054402962e-01 1.6152952366568490e-01 4.8912505619331409e-01  4.9827663382009080e-01 1.6115131848396511e-01 4.9327013057916741e-01  4.9905765602947755e-01 1.6086891630258279e-01 4.9730190362786908e-01  4.9982815890571936e-01 1.6067147651388108e-01 5.0121808498925802e-01  5.0058952775001142e-01 1.6055169083560467e-01 5.0503048850069565e-01  5.0134055576931968e-01 1.6050158826151165e-01 5.0873818295401718e-01  5.0207606512897418e-01 1.6051427527111323e-01 5.1232020078090135e-01  5.0280363465323508e-01 1.6058470383760703e-01 5.1581709072075732e-01  5.0351812474517843e-01 1.6070622496290879e-01 5.1920824651554731e-01  5.0421432851838000e-01 1.6087228669113846e-01 5.2247230358029029e-01  5.0489856412948619e-01 1.6108047898380326e-01 5.2564294433438175e-01  5.0556943521865394e-01 1.6132453021100615e-01 5.2871659063414489e-01  5.0622682326113000e-01 1.6160213949809440e-01 5.3169531005662773e-01  5.0686947214072486e-01 1.6190852725385740e-01 5.3457628175377425e-01  5.0749907287433349e-01 1.6224113725584569e-01 5.3736959240382953e-01  5.0811527336981066e-01 1.6259720675905495e-01 5.4007590906302538e-01  5.0871564648775347e-01 1.6297213625575768e-01 5.4268696301316266e-01  5.0930203806718199e-01 1.6336466293146532e-01 5.4521284874740372e-01  5.0987708969837597e-01 1.6377390644240014e-01 5.4766718387916791e-01  5.1043440255982131e-01 1.6419336152603878e-01 5.5002413173122966e-01  5.1098043762090606e-01 1.6462576543585608e-01 5.5231313674626747e-01  5.1151282658347674e-01 1.6506713695057051e-01 5.5452572262780286e-01  5.1203116493869882e-01 1.6551544949285057e-01 5.5666194813184344e-01  5.1253600838122082e-01 1.6596949897306026e-01 5.5872554634363725e-01  5.1302739470026104e-01 1.6642767234158726e-01 5.6071815738022956e-01  5.1350621974584121e-01 1.6688938121480359e-01 5.6264473423637107e-01  5.1397382983263207e-01 1.6735462620818004e-01 5.6451191367901943e-01  5.1442540512861246e-01 1.6781712353192957e-01 5.6630175885317402e-01  5.1486275788721736e-01 1.6827740405822861e-01 5.6802281428286194e-01  5.1529238616511319e-01 1.6874130015864544e-01 5.6970157163386692e-01  5.1570684551442447e-01 1.6919963476642447e-01 5.7131000928380138e-01  5.1610664464615907e-01 1.6965189281313089e-01 5.7285124697347578e-01  5.1649554497571670e-01 1.7010122284325055e-01 5.7434080868323034e-01  5.1687163567373251e-01 1.7054445654342992e-01 5.7577223170561520e-01  5.1723665263226581e-01 1.7098291667297139e-01 5.7715307815696382e-01  5.1758682021151659e-01 1.7141096222349214e-01 5.7846984139888913e-01  5.1792646025890765e-01 1.7183325648429665e-01 5.7973975463697192e-01  5.1825308568670392e-01 1.7224582124622187e-01 5.8095421169826189e-01  5.1856855628490028e-01 1.7265030508402304e-01 5.8212082449463820e-01  5.1887362231871825e-01 1.7304699717207120e-01 5.8324308501240785e-01  5.1916377046764139e-01 1.7342946083311345e-01 5.8430518782259033e-01  5.1944117401038248e-01 1.7379975582071200e-01 5.8531566210381958e-01  5.1970980915235931e-01 1.7416261068966019e-01 5.8628968680465154e-01  5.1996469478660334e-01 1.7451080002674901e-01 5.8720969075832063e-01  5.2020663949885260e-01 1.7484484522336105e-01 5.8807930068537351e-01  5.2043758076975566e-01 1.7516686303838944e-01 5.8890591340771481e-01  5.2065761272238564e-01 1.7547652681937867e-01 5.8969048390491308e-01  5.2086423657009884e-01 1.7576989038980201e-01 5.9042444804089556e-01  5.1702933250540040e-01 1.7073298473977577e-01 5.7636981039102630e-01  4.8465755174258685e-01 2.3019118218033507e-01 3.8456366040406081e-01  5.2111319909896603e-01 1.7613159001553721e-01 5.9130347762225088e-01  4.8996415565204143e-01 1.7217974616759649e-01 4.4491243615766951e-01  5.2092756141941099e-01 1.7586028940219528e-01 5.9064893933355156e-01  5.0051470403495679e-01 3.8403482745820516e-01 3.7509636997815948e-01  5.1704857141661620e-01 1.7076768460571662e-01 5.7643855086561002e-01  5.0855958739764362e-01 1.6289540264495742e-01 5.4200557365638646e-01  5.0267368366753395e-01 1.6330436702630247e-01 5.1455211944398915e-01  4.8465656399691021e-01 2.2744900068057367e-01 3.8612823970854593e-01  5.1322588266798619e-01 1.6661746735505664e-01 5.6151846257758964e-01  4.9048504103316221e-01 3.1077228866361450e-01 3.6885827752876182e-01  4.8774736751533149e-01 2.8298141618264916e-01 3.7077746985926624e-01  5.1014769163761742e-01 1.6397500426253572e-01 5.4881420110857781e-01  4.8726565309140096e-01 1.8273814813902717e-01 4.2496573522117442e-01  5.2206695198540398e-01 1.7752934792397274e-01 5.9464329693238338e-01  4.8879802424103086e-01 2.9251086613455585e-01 3.7088039024293318e-01  4.9095465337288446e-01 1.7401281295055218e-01 4.4957172785150096e-01  5.2252147806500959e-01 1.7821319108035533e-01 5.9621548543671821e-01  5.0591566572175939e-01 1.6146693283956051e-01 5.3028895284273736e-01  4.9294356032109110e-01 1.6609202952934593e-01 4.6365437417378813e-01  5.0093784283403786e-01 1.6051917131051469e-01 5.0675777462009086e-01  5.2250718420405340e-01 1.7819090426422055e-01 5.9616644563245003e-01  5.2694237717645342e-01 1.8690275846055041e-01 6.1046436999546516e-01  4.9923014790003667e-01 1.6087069405684506e-01 4.9816655753791567e-01  4.9705636039052492e-01 1.6177898404277227e-01 4.8683542518991385e-01  5.2219945698659398e-01 1.7772530667618139e-01 5.9510382467558298e-01  5.1899082532864149e-01 1.7320083034751801e-01 5.8367290780059589e-01  4.8539538666200938e-01 1.9718771002555260e-01 4.0700975223184704e-01  4.9173656014437644e-01 3.1858340327630541e-01 3.7086119528184291e-01  5.1401098668511902e-01 1.6740848005409961e-01 5.6465444286703026e-01  5.1967960689558368e-01 1.7412923915493256e-01 5.8617752962560155e-01  5.3796605427438038e-01 2.0931795551236101e-01 6.4152954563407116e-01  5.0326461500687514e-01 1.6069617560715937e-01 5.1799766322687368e-01  4.9384912328970432e-01 1.6472979291516501e-01 4.6901320540678310e-01  5.2175839410616631e-01 1.7706794887277116e-01 5.9357032251348107e-01  4.9333993070086735e-01 3.3476912352525373e-01 3.6927178316663190e-01  4.8628424833145145e-01 2.6473361922582517e-01 3.7356589949918273e-01  5.2005664553723008e-01 1.7463736482735262e-01 5.8754067481725014e-01  5.1545971081811737e-01 1.6892481547911314e-01 5.7035260815635369e-01  4.8735290462765107e-01 1.8203200807608089e-01 4.2579690862731034e-01  4.8567372856258517e-01 2.1097555974672763e-01 4.0125220286301699e-01  5.1157233666095692e-01 1.6513857810488566e-01 5.5476508281830283e-01  5.2232410082382874e-01 1.7791494731142973e-01 5.9553425882670874e-01  5.1562900265905209e-01 1.6912663156448690e-01 5.7100412364427733e-01  5.2500949730337954e-01 1.8385682366926714e-01 6.0409837774305897e-01  4.9906933111200347e-01 3.7443400433613083e-01 3.7398628147732599e-01  5.0604984413629250e-01 1.6155424545225960e-01 5.3088815305815851e-01  4.8497703513225277e-01 2.0440107085374484e-01 4.0077857825792140e-01  5.1806627518198056e-01 1.7200921183720810e-01 5.8026034956408712e-01  5.2043722638140433e-01 1.7517246073520529e-01 5.8890244946947734e-01  5.0841784102255960e-01 1.6278276153832660e-01 5.4139512364007591e-01  4.8545066154409533e-01 2.4018215003012486e-01 3.8341660748594503e-01  5.0388713007413877e-01 1.6078837656419695e-01 5.2094356512348461e-01  4.8466776108217779e-01 2.1170149337751626e-01 3.9501912221884194e-01  5.1863775193259543e-01 1.7274900934722473e-01 5.8237254763239599e-01  5.1174253133