<?xml version="1.0"?>
<VTKFile type="UnstructuredGrid"  version="0.1"  >
<UnstructuredGrid>
<Piece  NumberOfPoints="4940" NumberOfCells="9650">
<Points>
<DataArray  type="Float64"  NumberOfComponents="3"  format="ascii">500 250 0  0 250 0  250 500 0  250 0 0  256.8885856082646 499.9050767557906 0  263.7719401218049 499.6203791065173 0  270.6448364229772 499.1461232471188 0  277.5020553257866 498.4826693209355 0  284.3383895508592 497.6305211460281 0  291.1486476865662 496.5903258312597 0  297.9276581259182 495.3628732847843 0  304.6702729675493 493.9490956196674 0  311.3713719748657 492.3500664368026 0  318.0258664141369 490.5670000199653 0  324.6287029687753 488.6012504015818 0  331.1748675330201 486.4543103455647 0  337.6593890460416 484.1278102064655 0  344.0773432429536 481.6235166997244 0  350.4238564271474 478.9433315480048 0  356.694109139292 476.0892900492477 0  362.88333985546 473.0635595140469 0  368.9868485575419 469.8684376402048 0  375.0000003153078 466.5063507640667 0  380.9182288257928 462.9798520074548 0  386.7370398729688 459.2916193419558 0  392.4520147244077 455.444453565817 0  398.0588135356345 451.4412761437442 0  403.5531785622926 447.285127045646 0  408.9309374414144 442.9791624087773 0  414.1880064015299 438.5266521049243 0  419.3203932989752 433.9309773069245 0  424.324200661095 429.1956279150535 0  429.1956286596235 424.3241998957182 0  433.9309780058756 419.3203925397119 0  438.5266527445345 414.1880056671062 0  442.9791630130591 408.9309367076756 0  447.2851276060475 403.5531778422888 0  451.4412766621026 398.0588128303826 0  455.4444540361634 392.4520140460735 0  459.2916197786263 386.7370392045948 0  462.9798524073514 380.9182281752347 0  466.5063511234856 374.9999996927758 0  469.8684379657123 368.9868479560565 0  473.0635598144817 362.8833392617846 0  476.0892903190255 356.6941085676214 0  478.9433317963513 350.4238558609745 0  481.6235169154735 344.0773427117675 0  484.12781039012 337.6593885555221 0  486.4543105028062 331.1748670749914 0  488.601250531677 324.6287025528375 0  490.5670001317469 318.0258660188321 0  492.3500665291326 311.3713716102628 0  493.949095695951 304.6702726271575 0  495.3628733416623 297.9276578347343 0  496.5903258712341 291.1486474470129 0  497.6305211749058 284.3383893426084 0  498.4826693388848 277.502055163614 0  499.1461232580606 270.6448362909296 0  499.6203791109319 263.7719400417897 0  499.9050767571306 256.8885855596534 0  499.9050767559877 243.1114143988867 0  499.6203791069493 236.2280598860241 0  499.1461232485393 229.3551635941651 0  498.4826693235677 222.4979446979962 0  497.6305211491849 215.6616104719064 0  496.5903258357701 208.8513523404629 0  495.3628732906988 202.0723419043604 0  493.9490956264813 195.3297270628552 0  492.3500664487791 188.6286280724281 0  490.5670000344809 181.9741336371959 0  488.6012504175981 175.3712970824318 0  486.4543103623226 168.8251325157939 0  484.1278102222298 162.3406109960628 0  481.6235167152198 155.9226567951971 0  478.9433315621651 149.5761436051346 0  476.0892900516498 143.3058908657982 0  473.063559513628 137.1166601437124 0  469.8684376406648 131.0131514433083 0  466.5063507675389 124.9999996907064 0  462.9798520124137 119.0817711822745 0  459.2916193464549 113.2629601339176 0  455.4444535642773 107.5479852733717 0  451.4412761528674 101.9411864767781 0  447.2851270583545 96.44682145403524 0  442.9791624165781 91.06906256805769 0  438.5266521117469 85.81199360630404 0  433.9309773156125 80.67960671046254 0  429.1956279150353 75.67579933888632 0  424.3241998888952 70.80437133373906 0  419.3203925223282 66.06902197812161 0  414.1880056411937 61.47334723289828 0  408.9309366751728 57.0208369601728 0  403.5531778009394 52.71487236176898 0  398.058812796452 48.55872331295853 0  392.4520140187753 44.55554594490843 0  386.7370391799677 40.70838020528396 0  380.9182281475119 37.02014757560744 0  374.9999996718656 33.49364886444181 0  368.9868479340393 30.13156202237255 0  362.8833392380029 26.93644017348339 0  356.6941085456942 23.91070967062674 0  350.4238558420009 21.0566681953261 0  344.0773426899492 18.37648307566465 0  337.6593885328982 15.87218960140942 0  331.1748670549786 13.54568949032341 0  324.6287025315056 11.39874946165088 0  318.0258660010876 9.432999863235466 0  311.3713716017894 7.649933468721599 0  304.6702726190621 6.050904302234756 0  297.9276578269805 4.637126656823085 0  291.148647441857 3.409674127905504 0  284.3383893425031 2.369478825079682 0  277.502055159398 1.517330660648639 0  270.6448362875833 0.853876741662134 0  263.7719400401456 0.3796208889774277 0  256.8885855592052 0.09492324285704967 0  243.1114143979462 0.09492324403817065 0  236.2280598850882 0.3796208931023841 0  229.3551635938215 0.8538767514891958 0  222.4979446968584 1.517330676558146 0  215.6616104703111 2.369478851036291 0  208.8513523382973 3.409674164591252 0  202.0723419066374 4.637126708856528 0  195.3297270659513 6.050904372824903 0  188.628628074828 7.649933550613184 0  181.9741336377093 9.432999965373938 0  175.3712970793675 11.39874958336037 0  168.8251325057572 13.54568964112298 0  162.340610986655 15.87218978129263 0  155.9226567874317 18.37648328793418 0  149.576143602509 21.05666843898663 0  143.3058908718157 23.91070994551046 0  137.1166601505524 26.93644048291054 0  131.0131514451933 30.13156235831508 0  124.9999996848412 33.49364923584736 0  119.0817711715717 37.0201479941652 0  113.2629601211624 40.70838066187849 0  107.5479852622251 44.55554644345162 0  101.9411864693332 48.55872385260452 0  96.44682143286516 52.71487295812284 0  91.06906254351222 57.02083760363669 0  85.81199358272519 61.4733479087879 0  80.67960667988106 66.06902271253972 0  75.67579930062769 70.80437212218331 0  70.80437129287643 75.67580015310926 0  66.06902193673014 80.67960752263491 0  61.47334718684866 85.81199441168215 0  57.02083692524275 91.0690633672404 0  52.71487232786438 96.44682224262129 0  48.55872328070024 101.941187247437 0  44.55554591578033 107.5479860232332 0  40.7083801742321 113.2629608675606 0  37.02014754791168 119.0817718975441 0  33.49364883372994 125.000000381329 0  30.13156199866361 131.0131521097709 0  26.9364401549829 137.1166607985551 0  23.91070965524918 143.3058914868915 0  21.05666818346614 149.576144185037 0  18.37648306853811 155.9226573275967 0  15.8721895918909 162.3406114925245 0  13.54568948170046 168.8251329701392 0  11.39874945301878 175.3712974960928 0  9.432999857087736 181.9741340206533 0  7.649933466342702 188.6286284076045 0  6.050904301250966 195.3297273853278 0  4.637126656808988 202.0723421730917 0  3.409674127767772 208.8513525589684 0  2.369478824521138 215.6616106615248 0  1.517330660909465 222.4979448382452 0  0.8538767414496533 229.355163714981 0  0.3796208887135322 236.2280599646376 0  0.09492324266324204 243.1114144478261 0  0.0949232442452228 256.8885856095658 0  0.3796208935834784 263.7719401236316 0  0.8538767530323526 270.6448364248016 0  1.517330679476544 277.5020553295092 0  2.369478854618649 284.3383895555228 0  3.409674170191892 291.1486476952655 0  4.6371267162381 297.9276581311522 0  6.050904381420935 304.6702729724059 0  7.649933562385399 311.3713719716595 0  9.43299997979841 318.0258664133013 0  11.3987495994252 324.6287029719946 0  13.54568965885832 331.174867545904 0  15.87218979367188 337.6593890464085 0  18.37648329843151 344.0773432384132 0  21.05666844777872 350.423856417535 0  23.91070995156048 356.6941091410045 0  26.93644048988043 362.8833398632205 0  30.13156235982007 368.9868485575877 0  33.49364924138357 375.0000003247478 0  37.0201480006036 380.9182288389023 0  40.70838066758398 386.7370398875706 0  44.55554644477201 392.4520147396792 0  48.55872386086904 398.0588135419111 0  52.71487295981296 403.5531785693063 0  57.02083760525949 408.9309374584583 0  61.47334790862246 414.1880064170849 0  66.06902271205095 419.320393319588 0  70.80437211216579 424.3242006890749 0  75.67580013809859 429.195628692521 0  80.6796075127923 433.930978054209 0  85.81199439754931 438.5266528008431 0  91.06906334717917 442.9791630582355 0  96.44682221438322 447.2851276501571 0  101.9411872243843 451.441276702356 0  107.5479859945825 455.4444540643537 0  113.2629608446994 459.2916198108319 0  119.0817718768376 462.9798524393601 0  125.0000003647644 466.5063511567065 0  131.0131521012763 469.8684379967393 0  137.1166607840049 473.0635598376539 0  143.3058914748804 476.0892903390826 0  149.5761441732679 478.9433318113714 0  155.9226573130112 481.6235169255377 0  162.3406114779862 484.1278104026658 0  168.8251329570439 486.4543105138039 0  175.3712974805475 488.601250542119 0  181.9741340135204 490.5670001408953 0  188.6286284005059 492.3500665318597 0  195.3297273788229 493.9490956972913 0  202.0723421640089 495.3628733414168 0  208.8513525529672 496.5903258712308 0  215.6616106544547 497.6305211744985 0  222.4979448327038 498.4826693384772 0  229.3551637102845 499.1461232581612 0  236.2280599621369 499.6203791111485 0  243.1114144470173 499.9050767573145 0  155.2373389820306 474.8197567317462 0  25.36256300907667 153.9152755065208 0  432.3709625126712 412.6214396304305 0  6.013151705810699 246.637913163471 0  246.6379131630491 493.986848294322 0  338.6995838441862 22.68244767887072 0  477.3175523131281 338.6995838660569 0  493.9868482700757 246.6379131399102 0  246.6201155078769 6.218451882810491 0  417.6179310263282 72.7156044707053 0  102.2232990934413 445.0100869616822 0  63.66330858966404 92.20354579482142 0  391.3105220491464 50.73522820883105 0  72.79295043967942 418.0702734974704 0  448.290574428537 108.25674339002 0  402.4604651193511 440.7462829841712 0  97.55317348421397 59.11376320116034 0  136.7376477664901 33.58246472647134 0  363.3288394375288 465.6947312928271 0  44.0678766556007 381.0860953771871 0  469.6905266180034 142.3890690100806 0  22.68244791668644 338.6995843487432 0  338.699584349159 477.317552078365 0  173.389488083762 18.6681884918202 0  483.4809734778481 179.7121987795732 0  13.50237455842738 306.4709525540879 0  305.9825168523021 487.24416992
[...]
<PointData  Vectors="f_12"> 
<DataArray  type="Float64"  Name="f_12"  NumberOfComponents="3" format="ascii">5.7708691742109219e-01 4.1013738518880810e-01 6.3950247096021273e-01  5.6476535323868859e-01 3.0340491030205258e-01 6.7680811437773769e-01  5.7692931249105850e-01 4.5182513821554038e-01 6.0884104490473823e-01  5.6970478874600705e-01 4.9753337405271553e-01 5.5631673209319110e-01  5.7689839211070704e-01 4.5244901829503220e-01 6.0830224271079103e-01  5.7686926044899345e-01 4.5301918921856532e-01 6.0780743869129916e-01  5.7684070433631385e-01 4.5356311485003009e-01 6.0733332378534655e-01  5.7681395089245779e-01 4.5406049294610046e-01 6.0689803059616143e-01  5.7678861681694304e-01 4.5452055393199109e-01 6.0649381279817283e-01  5.7676490660197399e-01 4.5494252392847312e-01 6.0612175908944255e-01  5.7674289911193466e-01 4.5532697978399989e-01 6.0578168627058815e-01  5.7672256568205593e-01 4.5567615017780022e-01 6.0547188779636496e-01  5.7670412014155348e-01 4.5598802989496878e-01 6.0519440106700317e-01  5.7668774374903042e-01 4.5626105680037882e-01 6.0495087651425306e-01  5.7667447838759900e-01 4.5647950067599385e-01 6.0475559907633603e-01  5.7666121902646772e-01 4.5669581087576477e-01 6.0456187980121756e-01  5.7665299221414179e-01 4.5682817003923853e-01 6.0444306043425577e-01  5.7664527268608656e-01 4.5695153983057113e-01 6.0433216385436594e-01  5.7664025630226423e-01 4.5703048119286510e-01 6.0426100966897078e-01  5.7663740273836428e-01 4.5707431247044927e-01 6.0422132904744053e-01  5.7663656672268282e-01 4.5708564658711698e-01 6.0421080476900269e-01  5.7663911733585982e-01 4.5704201003572953e-01 6.0424958790137917e-01  5.7664419461893179e-01 4.5695727618911502e-01 6.0432520951809465e-01  5.7665050266664264e-01 4.5685228710367776e-01 6.0441891679994197e-01  5.7665935257785950e-01 4.5670519305109170e-01 6.0455023640596617e-01  5.7667125201082914e-01 4.5650646554811708e-01 6.0472749807210024e-01  5.7668632943553066e-01 4.5625302992205569e-01 6.0495328724018294e-01  5.7670244896777068e-01 4.5597916880094291e-01 6.0519678611013183e-01  5.7672076467336675e-01 4.5566414621727935e-01 6.0547626113219788e-01  5.7674251951431266e-01 4.5528474349536957e-01 6.0581203090946212e-01  5.7676552076334053e-01 4.5487649906099731e-01 6.0617221446814329e-01  5.7679090109307329e-01 4.5441695746775451e-01 6.0657625839944485e-01  5.7681835418155158e-01 4.5390915279728572e-01 6.0702113453077333e-01  5.7684712462590360e-01 4.5336382816799436e-01 6.0749692066066985e-01  5.7687870877414715e-01 4.5274831377332991e-01 6.0803151947725109e-01  5.7691160522006091e-01 4.5208721269646296e-01 6.0860292893722623e-01  5.7694510992020576e-01 4.5139102917287399e-01 6.0920150902961567e-01  5.7698068633630284e-01 4.5062298187270111e-01 6.0985810015806918e-01  5.7701809135294602e-01 4.4977972603419253e-01 6.1057449375607842e-01  5.7705563207339616e-01 4.4889267110946934e-01 6.1132311832870412e-01  5.7709301150173287e-01 4.4796220764524602e-01 6.1210286835113203e-01  5.7713128662054303e-01 4.4695202825914648e-01 6.1294309398657587e-01  5.7717004339536260e-01 4.4586097207188052e-01 6.1384345020891884e-01  5.7720787863644352e-01 4.4471136925674809e-01 6.1478387488190334e-01  5.7724504102976659e-01 4.4348120942400943e-01 6.1578100683961057e-01  5.7728088010978262e-01 4.4217496929856165e-01 6.1682972589298557e-01  5.7731472298186448e-01 4.4079262241023692e-01 6.1792817566921343e-01  5.7734593392111355e-01 4.3933394523829755e-01 6.1907483108809902e-01  5.7737446613187460e-01 4.3775936353058997e-01 6.2029808365751260e-01  5.7739897618678226e-01 4.3610511588993184e-01 6.2156790429026210e-01  5.7741856279370152e-01 4.3435386587801789e-01 6.2289433285667517e-01  5.7743269933567032e-01 4.3250107383327835e-01 6.2427895054163296e-01  5.7744004295765505e-01 4.3054515161754392e-01 6.2571920164031203e-01  5.7743963348870586e-01 4.2845887778393205e-01 6.2723191000460687e-01  5.7743010285914975e-01 4.2625930569879361e-01 6.2880061820891675e-01  5.7741007909909814e-01 4.2394484466475146e-01 6.3042255005120429e-01  5.7737793860053765e-01 4.2148690420949664e-01 6.3211329711431929e-01  5.7733207203930659e-01 4.1889364149567371e-01 6.3386240028584184e-01  5.7727121547635452e-01 4.1616718161102123e-01 6.3566320707567636e-01  5.7719483395186522e-01 4.1332821911496154e-01 6.3750125859472295e-01  5.7696822169019923e-01 4.0695997584545285e-01 6.4145668484002483e-01  5.7682059635887428e-01 4.0356659285343788e-01 6.4348290544267306e-01  5.7664459070801788e-01 3.9999760357621289e-01 6.4555078248506348e-01  5.7643541179675906e-01 3.9619887017655214e-01 6.4768167804728893e-01  5.7619005587210148e-01 3.9220107639486157e-01 6.4984671714238040e-01  5.7590610689473809e-01 3.8799553196594649e-01 6.5203940550545814e-01  5.7557617648789039e-01 3.8355725790603268e-01 6.5425703720877293e-01  5.7519684546051908e-01 3.7888067978934592e-01 6.5648838537212284e-01  5.7476340879421717e-01 3.7396682009518672e-01 6.5871633885652670e-01  5.7427025211999527e-01 3.6880835896989750e-01 6.6092596964654271e-01  5.7370667304249712e-01 3.6335158371035053e-01 6.6311675604127929e-01  5.7307264156472670e-01 3.5765406590153670e-01 6.6524476688134893e-01  5.7235679237571424e-01 3.5166393574294558e-01 6.6730356002130231e-01  5.7154926533317851e-01 3.4536541405782423e-01 6.6926727101016403e-01  5.7064345279668016e-01 3.3876641259687362e-01 6.7109918911177713e-01  5.6963104425832611e-01 3.3187083007016932e-01 6.7276176802136767e-01  5.6850329638868791e-01 3.2467647469649208e-01 6.7421429701087465e-01  5.6724898713903649e-01 3.1718002551268792e-01 6.7541040218862258e-01  5.6585655092789866e-01 3.0937630078196865e-01 6.7629883732731577e-01  5.6431949357453748e-01 3.0129209517197525e-01 6.7681920461263012e-01  5.6264046720757288e-01 2.9299846132448221e-01 6.7691053579407734e-01  5.6078470593201157e-01 2.8441178495965846e-01 6.7649010926426245e-01  5.5876506824905625e-01 2.7564638080093767e-01 6.7549530459861740e-01  5.5657935607223208e-01 2.6675096014104049e-01 6.7385701509463181e-01  5.5422788600627870e-01 2.5779038900132895e-01 6.7150142830489568e-01  5.5172232851594205e-01 2.4885896375344960e-01 6.6837771252096412e-01  5.4907842726315970e-01 2.4005246824424917e-01 6.6445097988547852e-01  5.4632129770327131e-01 2.3148197227898790e-01 6.5972095300348399e-01  5.4348135132434250e-01 2.2325012535796820e-01 6.5420995957396744e-01  5.4059707030681736e-01 2.1547085059881885e-01 6.4799098249887566e-01  5.3771601863789964e-01 2.0824532409853777e-01 6.4118100683574486e-01  5.3488792373107275e-01 2.0165558630499844e-01 6.3393918749923028e-01  5.3217276067092301e-01 1.9578299239116739e-01 6.2648681810815077e-01  5.2959552367703955e-01 1.9060886266899321e-01 6.1896578503418209e-01  5.2720835958976620e-01 1.8615729380766560e-01 6.1162333710106587e-01  5.2508553961408222e-01 1.8247543512787348e-01 6.0479343171233346e-01  5.2324018805084838e-01 1.7948796517666410e-01 5.9862360320060248e-01  5.2169180459514286e-01 1.7714090524660478e-01 5.9328035719535899e-01  5.2053079103956446e-01 1.7548348233053279e-01 5.8917315495243328e-01  5.1977274395514927e-01 1.7446747308287694e-01 5.8643600567503340e-01  5.1940711527488181e-01 1.7403389701677208e-01 5.8508849135051866e-01  5.1962693406243199e-01 1.7442092802620460e-01 5.8585562995067419e-01  5.2045318206024505e-01 1.7569451005768202e-01 5.8878420849137325e-01  5.2206352110830090e-01 1.7821960715606505e-01 5.9439893455143744e-01  5.2460009548257713e-01 1.8248203965494422e-01 6.0292103666520303e-01  5.2827290248379477e-01 1.8931195138220797e-01 6.1454830077533917e-01  5.3321030791086488e-01 1.9976857075658921e-01 6.2880577772814028e-01  5.3944991643934825e-01 2.1519287392493947e-01 6.4443171500073071e-01  5.4689674341290462e-01 2.3723265634107310e-01 6.5926191614031349e-01  5.5503116206641678e-01 2.6682842602789492e-01 6.6970792077395802e-01  5.6292245473935665e-01 3.0335676339217021e-01 6.7234169031100421e-01  5.6939593341164574e-01 3.4425020234257120e-01 6.6495698336090925e-01  5.7362480539248517e-01 3.8562041611029269e-01 6.4846998641368525e-01  5.7529192318125455e-01 4.2360155147639816e-01 6.2589326552082014e-01  5.7472570278333079e-01 4.5534150581399085e-01 6.0108705573413113e-01  5.7260504861627126e-01 4.7988163744470069e-01 5.7724899951879149e-01  5.6668897350323699e-01 5.0888776459928686e-01 5.3968848832626959e-01  5.6367625774326569e-01 5.1774484703315615e-01 5.2477140693132596e-01  5.6126637818444369e-01 5.2218764311377419e-01 5.1466850732866343e-01  5.5931749182402613e-01 5.2500600675486220e-01 5.0701117687948349e-01  5.5785715079506404e-01 5.2669879974729605e-01 5.0152246337173456e-01  5.5689467414388849e-01 5.2760386005845195e-01 4.9803468282137514e-01  5.5638306389175518e-01 5.2802371839169870e-01 4.9621648764287302e-01  5.5631002416463926e-01 5.2807735290934044e-01 4.9596136445181371e-01  5.5666545935719325e-01 5.2779109954776748e-01 4.9722170435230356e-01  5.5740725808710723e-01 5.2713147529902804e-01 4.9988864578688980e-01  5.5864880589991850e-01 5.2583630116458879e-01 5.0446321519348736e-01  5.6031577715543923e-01 5.2364428185566569e-01 5.1088411079041496e-01  5.6240387278180981e-01 5.2012809323091258e-01 5.1941872610015738e-01  5.6485192968038567e-01 5.1473706242504103e-01 5.3025428756578574e-01  5.6760523466040291e-01 5.0651873516442392e-01 5.4392209814928361e-01  5.7045814586007881e-01 4.9453212990711470e-01 5.6054658918158273e-01  5.7304648070968056e-01 4.7794525013186850e-01 5.7979252717911367e-01  5.7494654682684121e-01 4.5629953160567721e-01 6.0085416244529022e-01  5.7567840393241188e-01 4.2957545452181706e-01 6.2237170066110770e-01  5.7485077930565698e-01 3.9868780677843690e-01 6.4234079370767061e-01  5.7226667908030937e-01 3.6525276957299285e-01 6.5854759516936323e-01  5.6817453669247575e-01 3.3197730500323996e-01 6.6919492937654113e-01  5.6308920435018162e-01 3.0144759704275986e-01 6.7360650410703582e-01  5.5759278809649249e-01 2.7510453409703445e-01 6.7258916618821307e-01  5.5220800569124684e-01 2.5350871762659993e-01 6.6766906940053961e-01  5.4732787454631149e-01 2.3660119155451639e-01 6.6060439500761592e-01  5.4313838667967396e-01 2.2373832894810594e-01 6.5286263635806396e-01  5.3970965506684843e-01 2.1420494552355657e-01 6.4549483837339994e-01  5.3699444729049750e-01 2.0723680265131533e-01 6.3904458653748675e-01  5.3492569798567857e-01 2.0224591803283595e-01 6.3378685822232017e-01  5.3341839677683323e-01 1.9876956967040973e-01 6.2977744435176819e-01  5.3241465350769968e-01 1.9651158839147320e-01 6.2703082135404264e-01  5.3183446286919889e-01 1.9520780677106650e-01 6.2542530821282327e-01  5.3163893785062077e-01 1.9473052770959387e-01 6.2489683233778071e-01  5.3172690713628823e-01 1.9485603712479191e-01 6.2517240190931045e-01  5.3211669225392988e-01 1.9561860334568093e-01 6.2630375870995803e-01  5.3277712849834646e-01 1.9697162581585168e-01 6.2817921672714494e-01  5.3368886652870229e-01 1.9890247919396409e-01 6.3071291792471906e-01  5.3483312244437264e-01 2.0140765516275677e-01 6.3380900019066033e-01  5.3618584639073885e-01 2.0447981603806659e-01 6.3735262893166966e-01  5.3769668901568701e-01 2.0804864544042792e-01 6.4116350936076894e-01  5.3934797951210822e-01 2.1211646914285431e-01 6.4514521272208480e-01  5.4113665698790225e-01 2.1672439688060427e-01 6.4924039469130068e-01  5.4299940382956446e-01 2.2174905545844573e-01 6.5325856409818805e-01  5.4491161436297819e-01 2.2715938236250127e-01 6.5711187771184743e-01  5.4685327280435070e-01 2.3292359264372833e-01 6.6073452691435242e-01  5.4880896515701749e-01 2.3902044098605232e-01 6.6407556243850174e-01  5.5071569624387007e-01 2.4527043026321202e-01 6.6701436708765660e-01  5.5259410229822981e-01 2.5173555951992305e-01 6.6959615307036313e-01  5.5440479066932213e-01 2.5827651953072756e-01 6.7176349859543505e-01  5.5615413620519771e-01 2.6492159429787654e-01 6.7354384177967908e-01  5.5781737449160285e-01 2.7154809449287853e-01 6.7492740954992292e-01  5.5938609347969515e-01 2.7811025731533406e-01 6.7593656841731886e-01  5.6086584976395759e-01 2.8460546944750975e-01 6.7659987626061935e-01  5.6225619979802810e-01 2.9100756543038275e-01 6.7694720560755028e-01  5.6355456665845738e-01 2.9727555975180037e-01 6.7700615662364272e-01  5.6589046914693431e-01 3.0937627526639822e-01 6.7638128880085979e-01  5.6693143361229414e-01 3.1516968814838631e-01 6.7575325419103005e-01  5.6789742713055458e-01 3.2080843272250065e-01 6.7494852034496955e-01  5.6878890590535924e-01 3.2626525607307488e-01 6.7399162692792325e-01  5.6961091049926438e-01 3.3154418669836305e-01 6.7290488914030167e-01  5.7036820991534432e-01 3.3664849692995741e-01 6.7170647861068244e-01  5.7106464902737530e-01 3.4157819185692084e-01 6.7041415645784086e-01  5.7170437856770873e-01 3.4633559603955649e-01 6.6904350561299142e-01  5.7229140798026812e-01 3.5092574125071119e-01 6.6760813578691613e-01  5.7282928314692128e-01 3.5535184567191747e-01 6.6612002084740463e-01  5.7332107949811184e-01 3.5961616540564528e-01 6.6459106435066839e-01  5.7377020214186081e-01 3.6371963166871402e-01 6.6303254855512173e-01  5.7418135976014539e-01 3.6768694441206229e-01 6.6144475281182757e-01  5.7455673762463910e-01 3.7151553843143925e-01 6.5983804253530631e-01  5.7489667166148051e-01 3.7518628005627380e-01 6.5822884829183737e-01  5.7520787177481680e-01 3.7875371075212405e-01 6.5660031184584766e-01  5.7548993568193763e-01 3.8219030455291775e-01 6.5497223463729071e-01  5.7574299852835853e-01 3.8547380236074130e-01 6.5336151889188687e-01  5.7597194569936261e-01 3.8864924772196513e-01 6.5175324837092707e-01  5.7617855348232216e-01 3.9171348852139948e-01 6.5015394511948965e-01  5.7636388603998734e-01 3.9466920871129146e-01 6.4856703440069985e-01  5.7652940684023746e-01 3.9751627393920141e-01 6.4699717280991709e-01  5.7667714047755481e-01 4.0026685091390601e-01 6.4544209598352498e-01  5.7680817988867406e-01 4.0292335319114225e-01 6.4390405838885434e-01  5.7692319740722320e-01 4.0547396995767993e-01 6.4239390940518648e-01  5.7702391591916269e-01 4.0793596576172519e-01 6.4090467057181744e-01  5.7711195695531026e-01 4.1032207387940739e-01 6.3943228131352214e-01  5.7718699562657805e-01 4.1260386407240662e-01 6.3799655173190628e-01  5.7725113056703947e-01 4.1481752983758391e-01 6.3657789512622664e-01  5.7730494785792463e-01 4.1695238599932571e-01 6.3518562646436005e-01  5.7734911911642472e-01 4.1900778618012952e-01 6.3382263354475910e-01  5.7738446919359443e-01 4.2098978883867033e-01 6.3248699155166721e-01  5.7741176122082571e-01 4.2290011766619023e-01 6.3117980758989167e-01  5.7743167022161879e-01 4.2474520323329940e-01 6.2989850902154887e-01  5.7744484841940824e-01 4.2653270541935090e-01 6.2863951508375693e-01  5.7745180011099373e-01 4.2823969992905542e-01 6.2742095841843026e-01  5.7745313434134671e-01 4.2987882687064244e-01 6.2623555661126629e-01  5.7744934728235853e-01 4.3148098612124652e-01 6.2506232910081827e-01  5.7744099089855783e-01 4.3301169781997362e-01 6.2392792996187463e-01  5.7742852587375448e-01 4.3447544907098584e-01 6.2283052079003376e-01  5.7741232953271693e-01 4.3589076936440913e-01 6.2175770029543476e-01  5.7739291908624069e-01 4.3724943985652981e-01 6.2071688485213206e-01  5.7737045531296038e-01 4.3856100566300682e-01 6.1970178016909827e-01  5.7734579222351334e-01 4.3980817073043343e-01 6.1872714940350793e-01  5.7731872371510240e-01 4.4101284681558456e-01 6.1777676592992170e-01  5.7728992323662620e-01 4.4216362081789545e-01 6.1686067926429766e-01  5.7725950893428513e-01 4.4326995646454381e-01 6.1597233981321042e-01  5.7722767080565851e-01 4.4433568200219808e-01 6.1510954767033743e-01  5.7719519830877286e-01 4.4534156178172896e-01 6.1428862252329020e-01  5.7716215200360599e-01 4.4629857534393952e-01 6.1350157275937989e-01  5.7712821171623840e-01 4.4722411806021095e-01 6.1273494595952471e-01  5.7709435607738935e-01 4.4809723358785342e-01 6.1200667862887281e-01  5.7706069940831262e-01 4.4892197404838513e-01 6.1131419967665734e-01  5.7702713594604804e-01 4.4970781158742140e-01 6.1065022866215990e-01  5.7699387971642146e-01 4.5045476548923818e-01 6.1001543413641224e-01  5.7696154108036846e-01 4.5115335389773109e-01 6.0941832720870381e-01  5.7738428347896942e-01 4.3777961549855560e-01 6.2030788517313629e-01  5.3980741663599252e-01 2.1328342019515348e-01 6.4622107544441609e-01  5.7687291079542646e-01 4.5286525110490872e-01 6.0793057605335710e-01  5.6412098553210399e-01 3.0011060042692905e-01 6.7694358137380695e-01  5.7695299321082871e-01 4.5133487776489212e-01 6.0926285064708585e-01  5.2033210348007408e-01 1.7568089103925480e-01 5.8831192127007426e-01  5.7733523902063311e-01 4.3985757930935704e-01 6.1866479249219053e-01  5.7702429907911157e-01 4.0836239362869264e-01 6.4060524510623518e-01  5.6831757823904838e-01 5.0362492667857206e-01 5.4805279202218371e-01  5.4189818372205800e-01 2.1892364768763031e-01 6.5086352057844443e-01  5.7742036914649919e-01 4.2363331545509603e-01 6.3067277164146729e-01  5.3217884649200220e-01 1.9612443957191833e-01 6.2633470564061822e-01  5.2794743626009066e-01 1.8750766618996184e-01 6.1393822549251520e-01  5.7714812144706806e-01 4.1138929648563688e-01 6.3876417518916062e-01  5.5968976400672710e-01 2.7959437734311554e-01 6.7601649961036536e-01  5.7671979037862320e-01 4.5568344704639119e-01 6.0545959197553434e-01  5.5389748725318133e-01 2.6041118486661513e-01 6.6939492354821672e-01  5.7422964948897548e-01 4.6569708455310321e-01 5.9203912138988068e-01  5.7664814682256982e-01 4.5689846224762715e-01 6.0437883682286164e-01  5.7627489356713180e-01 3.9322650414023541e-01 6.4934655286195175e-01  5.6901170181416916e-01 3.2786808902866277e-01 6.7360358337129622e-01  5.7435399529357045e-01 3.6941696358182846e-01 6.6072987179326226e-01  5.7665814639899393e-01 4.5674401208369808e-01 6.0451848772414440e-01  5.5982608838158143e-01 5.2437823447585108e-01 5.0894003518837572e-01  5.7390555341296379e-01 3.6523346595131490e-01 6.6237821430115484e-01  5.7196829317084186e-01 3.4837426442679514e-01 6.6841874619723485e-01  5.7672483046977507e-01 4.5563761448085993e-01 6.0550620962703405e-01  5.7721612074340711e-01 4.4470404346007059e-01 6.1480996254699138e-01  5.5158622850497174e-01 2.4823394658304779e-01 6.6824671135046954e-01  5.4974033451719218e-01 2.4739722774007419e-01 6.6344948493738543e-01  5.7744086715613885e-01 4.2928684595532918e-01 6.2663483980792334e-01  5.7707439824856011e-01 4.4843286809709959e-01 6.1170934177988356e-01  5.5668526851573052e-01 5.2780605004914760e-01 4.9726733172753101e-01  5.7570328274533245e-01 3.8522579464710299e-01 6.5343403107475961e-01  5.6917013009909967e-01 3.2868459566949648e-01 6.7351253574840775e-01  5.7680967599284105e-01 4.5413902993662325e-01 6.0682923296810798e-01  5.2081803903956880e-01 1.7589708329607476e-01 5.9019458698767613e-01  5.3296208746078799e-01 1.9736080262410982e-01 6.2870059280220403e-01  5.7708316711073349e-01 4.4837671010301844e-01 6.1177269565353898e-01  5.7744690310716940e-01 4.3205938348176626e-01 6.2463584070934342e-01  5.5870148794219776e-01 2.7521067912729874e-01 6.7553282565835870e-01  5.7439171880454043e-01 3.9946940639893774e-01 6.4083915489388121e-01  5.7735732354670433e-01 4.2024956555597293e-01 6.3295187105777684e-01  5.7667886541527058e-01 4.5638319385867288e-01 6.0483812969382189e-01  5.7741216618503088e-01 4.3499719307817364e-01 6.2240951295840730e-01  5.6021435813193088e-01 5.2378102862117659e-01 5.1049371132785115e-01  5.2934758418243466e-01 1.9173708278277998e-01 6.1772596785440959e-01  5.7652446129238544e-01 3.9776112663937502e-01 6.4681548491635543e-01  5.5020282747587779e-01 2.4373404741055660e-01 6.6619163353976274e-01  5.7730770345711890e-01 4.4146647585058424e-01 6.1741664628698623e-01  5.7697351391555551e-01 4.5078424752243695e-01 6.0972115797544368e-01  5.7686515546639217e-01 4.0415684878725489e-01 6.4317814739929802e-01  5.6960597153522574e-01 3.4345860533610484e-01 6.6581667342441597e-01  5.7562278855287963e-01 3.8388684985923821e-01 6.5414742449720742e-01  5.4578225426891525e-01 2.2971871486465945e-01 6.5876753708126468e-01  5.7719553276637103e-01 4.4509941695177152e-01 6.1446770322328881e-01  5.7732454569