<?xml version="1.0"?>
<VTKFile type="UnstructuredGrid"  version="0.1"  >
<UnstructuredGrid>
<Piece  NumberOfPoints="4940" NumberOfCells="9650">
<Points>
<DataArray  type="Float64"  NumberOfComponents="3"  format="ascii">500 250 0  0 250 0  250 500 0  250 0 0  256.8885856082646 499.9050767557906 0  263.7719401218049 499.6203791065173 0  270.6448364229772 499.1461232471188 0  277.5020553257866 498.4826693209355 0  284.3383895508592 497.6305211460281 0  291.1486476865662 496.5903258312597 0  297.9276581259182 495.3628732847843 0  304.6702729675493 493.9490956196674 0  311.3713719748657 492.3500664368026 0  318.0258664141369 490.5670000199653 0  324.6287029687753 488.6012504015818 0  331.1748675330201 486.4543103455647 0  337.6593890460416 484.1278102064655 0  344.0773432429536 481.6235166997244 0  350.4238564271474 478.9433315480048 0  356.694109139292 476.0892900492477 0  362.88333985546 473.0635595140469 0  368.9868485575419 469.8684376402048 0  375.0000003153078 466.5063507640667 0  380.9182288257928 462.9798520074548 0  386.7370398729688 459.2916193419558 0  392.4520147244077 455.444453565817 0  398.0588135356345 451.4412761437442 0  403.5531785622926 447.285127045646 0  408.9309374414144 442.9791624087773 0  414.1880064015299 438.5266521049243 0  419.3203932989752 433.9309773069245 0  424.324200661095 429.1956279150535 0  429.1956286596235 424.3241998957182 0  433.9309780058756 419.3203925397119 0  438.5266527445345 414.1880056671062 0  442.9791630130591 408.9309367076756 0  447.2851276060475 403.5531778422888 0  451.4412766621026 398.0588128303826 0  455.4444540361634 392.4520140460735 0  459.2916197786263 386.7370392045948 0  462.9798524073514 380.9182281752347 0  466.5063511234856 374.9999996927758 0  469.8684379657123 368.9868479560565 0  473.0635598144817 362.8833392617846 0  476.0892903190255 356.6941085676214 0  478.9433317963513 350.4238558609745 0  481.6235169154735 344.0773427117675 0  484.12781039012 337.6593885555221 0  486.4543105028062 331.1748670749914 0  488.601250531677 324.6287025528375 0  490.5670001317469 318.0258660188321 0  492.3500665291326 311.3713716102628 0  493.949095695951 304.6702726271575 0  495.3628733416623 297.9276578347343 0  496.5903258712341 291.1486474470129 0  497.6305211749058 284.3383893426084 0  498.4826693388848 277.502055163614 0  499.1461232580606 270.6448362909296 0  499.6203791109319 263.7719400417897 0  499.9050767571306 256.8885855596534 0  499.9050767559877 243.1114143988867 0  499.6203791069493 236.2280598860241 0  499.1461232485393 229.3551635941651 0  498.4826693235677 222.4979446979962 0  497.6305211491849 215.6616104719064 0  496.5903258357701 208.8513523404629 0  495.3628732906988 202.0723419043604 0  493.9490956264813 195.3297270628552 0  492.3500664487791 188.6286280724281 0  490.5670000344809 181.9741336371959 0  488.6012504175981 175.3712970824318 0  486.4543103623226 168.8251325157939 0  484.1278102222298 162.3406109960628 0  481.6235167152198 155.9226567951971 0  478.9433315621651 149.5761436051346 0  476.0892900516498 143.3058908657982 0  473.063559513628 137.1166601437124 0  469.8684376406648 131.0131514433083 0  466.5063507675389 124.9999996907064 0  462.9798520124137 119.0817711822745 0  459.2916193464549 113.2629601339176 0  455.4444535642773 107.5479852733717 0  451.4412761528674 101.9411864767781 0  447.2851270583545 96.44682145403524 0  442.9791624165781 91.06906256805769 0  438.5266521117469 85.81199360630404 0  433.9309773156125 80.67960671046254 0  429.1956279150353 75.67579933888632 0  424.3241998888952 70.80437133373906 0  419.3203925223282 66.06902197812161 0  414.1880056411937 61.47334723289828 0  408.9309366751728 57.0208369601728 0  403.5531778009394 52.71487236176898 0  398.058812796452 48.55872331295853 0  392.4520140187753 44.55554594490843 0  386.7370391799677 40.70838020528396 0  380.9182281475119 37.02014757560744 0  374.9999996718656 33.49364886444181 0  368.9868479340393 30.13156202237255 0  362.8833392380029 26.93644017348339 0  356.6941085456942 23.91070967062674 0  350.4238558420009 21.0566681953261 0  344.0773426899492 18.37648307566465 0  337.6593885328982 15.87218960140942 0  331.1748670549786 13.54568949032341 0  324.6287025315056 11.39874946165088 0  318.0258660010876 9.432999863235466 0  311.3713716017894 7.649933468721599 0  304.6702726190621 6.050904302234756 0  297.9276578269805 4.637126656823085 0  291.148647441857 3.409674127905504 0  284.3383893425031 2.369478825079682 0  277.502055159398 1.517330660648639 0  270.6448362875833 0.853876741662134 0  263.7719400401456 0.3796208889774277 0  256.8885855592052 0.09492324285704967 0  243.1114143979462 0.09492324403817065 0  236.2280598850882 0.3796208931023841 0  229.3551635938215 0.8538767514891958 0  222.4979446968584 1.517330676558146 0  215.6616104703111 2.369478851036291 0  208.8513523382973 3.409674164591252 0  202.0723419066374 4.637126708856528 0  195.3297270659513 6.050904372824903 0  188.628628074828 7.649933550613184 0  181.9741336377093 9.432999965373938 0  175.3712970793675 11.39874958336037 0  168.8251325057572 13.54568964112298 0  162.340610986655 15.87218978129263 0  155.9226567874317 18.37648328793418 0  149.576143602509 21.05666843898663 0  143.3058908718157 23.91070994551046 0  137.1166601505524 26.93644048291054 0  131.0131514451933 30.13156235831508 0  124.9999996848412 33.49364923584736 0  119.0817711715717 37.0201479941652 0  113.2629601211624 40.70838066187849 0  107.5479852622251 44.55554644345162 0  101.9411864693332 48.55872385260452 0  96.44682143286516 52.71487295812284 0  91.06906254351222 57.02083760363669 0  85.81199358272519 61.4733479087879 0  80.67960667988106 66.06902271253972 0  75.67579930062769 70.80437212218331 0  70.80437129287643 75.67580015310926 0  66.06902193673014 80.67960752263491 0  61.47334718684866 85.81199441168215 0  57.02083692524275 91.0690633672404 0  52.71487232786438 96.44682224262129 0  48.55872328070024 101.941187247437 0  44.55554591578033 107.5479860232332 0  40.7083801742321 113.2629608675606 0  37.02014754791168 119.0817718975441 0  33.49364883372994 125.000000381329 0  30.13156199866361 131.0131521097709 0  26.9364401549829 137.1166607985551 0  23.91070965524918 143.3058914868915 0  21.05666818346614 149.576144185037 0  18.37648306853811 155.9226573275967 0  15.8721895918909 162.3406114925245 0  13.54568948170046 168.8251329701392 0  11.39874945301878 175.3712974960928 0  9.432999857087736 181.9741340206533 0  7.649933466342702 188.6286284076045 0  6.050904301250966 195.3297273853278 0  4.637126656808988 202.0723421730917 0  3.409674127767772 208.8513525589684 0  2.369478824521138 215.6616106615248 0  1.517330660909465 222.4979448382452 0  0.8538767414496533 229.355163714981 0  0.3796208887135322 236.2280599646376 0  0.09492324266324204 243.1114144478261 0  0.0949232442452228 256.8885856095658 0  0.3796208935834784 263.7719401236316 0  0.8538767530323526 270.6448364248016 0  1.517330679476544 277.5020553295092 0  2.369478854618649 284.3383895555228 0  3.409674170191892 291.1486476952655 0  4.6371267162381 297.9276581311522 0  6.050904381420935 304.6702729724059 0  7.649933562385399 311.3713719716595 0  9.43299997979841 318.0258664133013 0  11.3987495994252 324.6287029719946 0  13.54568965885832 331.174867545904 0  15.87218979367188 337.6593890464085 0  18.37648329843151 344.0773432384132 0  21.05666844777872 350.423856417535 0  23.91070995156048 356.6941091410045 0  26.93644048988043 362.8833398632205 0  30.13156235982007 368.9868485575877 0  33.49364924138357 375.0000003247478 0  37.0201480006036 380.9182288389023 0  40.70838066758398 386.7370398875706 0  44.55554644477201 392.4520147396792 0  48.55872386086904 398.0588135419111 0  52.71487295981296 403.5531785693063 0  57.02083760525949 408.9309374584583 0  61.47334790862246 414.1880064170849 0  66.06902271205095 419.320393319588 0  70.80437211216579 424.3242006890749 0  75.67580013809859 429.195628692521 0  80.6796075127923 433.930978054209 0  85.81199439754931 438.5266528008431 0  91.06906334717917 442.9791630582355 0  96.44682221438322 447.2851276501571 0  101.9411872243843 451.441276702356 0  107.5479859945825 455.4444540643537 0  113.2629608446994 459.2916198108319 0  119.0817718768376 462.9798524393601 0  125.0000003647644 466.5063511567065 0  131.0131521012763 469.8684379967393 0  137.1166607840049 473.0635598376539 0  143.3058914748804 476.0892903390826 0  149.5761441732679 478.9433318113714 0  155.9226573130112 481.6235169255377 0  162.3406114779862 484.1278104026658 0  168.8251329570439 486.4543105138039 0  175.3712974805475 488.601250542119 0  181.9741340135204 490.5670001408953 0  188.6286284005059 492.3500665318597 0  195.3297273788229 493.9490956972913 0  202.0723421640089 495.3628733414168 0  208.8513525529672 496.5903258712308 0  215.6616106544547 497.6305211744985 0  222.4979448327038 498.4826693384772 0  229.3551637102845 499.1461232581612 0  236.2280599621369 499.6203791111485 0  243.1114144470173 499.9050767573145 0  155.2373389820306 474.8197567317462 0  25.36256300907667 153.9152755065208 0  432.3709625126712 412.6214396304305 0  6.013151705810699 246.637913163471 0  246.6379131630491 493.986848294322 0  338.6995838441862 22.68244767887072 0  477.3175523131281 338.6995838660569 0  493.9868482700757 246.6379131399102 0  246.6201155078769 6.218451882810491 0  417.6179310263282 72.7156044707053 0  102.2232990934413 445.0100869616822 0  63.66330858966404 92.20354579482142 0  391.3105220491464 50.73522820883105 0  72.79295043967942 418.0702734974704 0  448.290574428537 108.25674339002 0  402.4604651193511 440.7462829841712 0  97.55317348421397 59.11376320116034 0  136.7376477664901 33.58246472647134 0  363.3288394375288 465.6947312928271 0  44.0678766556007 381.0860953771871 0  469.6905266180034 142.3890690100806 0  22.68244791668644 338.6995843487432 0  338.699584349159 477.317552078365 0  173.389488083762 18.6681884918202 0  483.4809734778481 179.7121987795732 0  13.50237455842738 306.4709525540879 0  305.9825168523021 487.24416992
[...]
<PointData  Vectors="f_12"> 
<DataArray  type="Float64"  Name="f_12"  NumberOfComponents="3" format="ascii">3.0754694775298832e-03 1.8582602767232601e-01 8.4226087042069309e-01  3.1147986124603249e-03 1.8566687724916744e-01 8.5972040329737998e-01  3.2449958574711623e-03 2.0239510468055655e-01 8.3062123975813174e-01  3.2410469288352453e-03 1.9003071451040049e-01 8.9050373561577878e-01  3.2451617901025115e-03 2.0244667944424941e-01 8.3043421374972515e-01  3.2451002877498694e-03 2.0247545826162563e-01 8.3026526477677987e-01  3.2448094891004342e-03 2.0248495565240437e-01 8.3009611199183464e-01  3.2442893377392628e-03 2.0247305164754412e-01 8.2993726921703437e-01  3.2435401657893801e-03 2.0243956126506779e-01 8.2978978583367868e-01  3.2425632268317070e-03 2.0238532298303138e-01 8.2965000564303126e-01  3.2413599612430718e-03 2.0231017291002160e-01 8.2951934648398729e-01  3.2399326278075439e-03 2.0221420711551980e-01 8.2939826912026449e-01  3.2382838049458914e-03 2.0209785052140089e-01 8.2928573387086391e-01  3.2364183075709579e-03 2.0196090180759038e-01 8.2918477329399576e-01  3.2343463658475952e-03 2.0180241138453681e-01 8.2910439883444831e-01  3.2320563562670225e-03 2.0162725785371166e-01 8.2901544731713706e-01  3.2295777983712077e-03 2.0142971679173635e-01 8.2895882266927234e-01  3.2268898992252734e-03 2.0121624674963753e-01 8.2889365057819475e-01  3.2240207925493124e-03 2.0098329352648742e-01 8.2884943091410479e-01  3.2209684119954289e-03 2.0073307473788601e-01 8.2881427896779691e-01  3.2177392662332887e-03 2.0046593370270438e-01 8.2878921591905474e-01  3.2143647668559550e-03 2.0018165625962220e-01 8.2878855694248132e-01  3.2108331932458279e-03 1.9988200255293040e-01 8.2879857597860196e-01  3.2071260676939774e-03 1.9956829325435604e-01 8.2880496973548601e-01  3.2032909952073464e-03 1.9923995736507255e-01 8.2883060095978134e-01  3.1993447105413265e-03 1.9889820191953553e-01 8.2887653966493680e-01  3.1953200279926089e-03 1.9854431070604792e-01 8.2895018699558520e-01  3.1911424102183047e-03 1.9817849666303675e-01 8.2901913930202209e-01  3.1868635868744911e-03 1.9780171150545162e-01 8.2910046416146044e-01  3.1825642533356694e-03 1.9741633834591121e-01 8.2921625819354161e-01  3.1781426491906384e-03 1.9702079942212827e-01 8.2933154914149787e-01  3.1736851005790758e-03 1.9661795097059664e-01 8.2946851913528385e-01  3.1692189963543017e-03 1.9620924013347099e-01 8.2963142710507143e-01  3.1646519159149291e-03 1.9579219572275378e-01 8.2979376026202079e-01  3.1601318015802822e-03 1.9537260668052917e-01 8.2998898882384353e-01  3.1556045239492353e-03 1.9494901521180932e-01 8.3020153465456126e-01  3.1509985224797720e-03 1.9451881222771308e-01 8.3041434847591022e-01  3.1464700189474245e-03 1.9408900258733927e-01 8.3065829392895252e-01  3.1420472437294531e-03 1.9366164632524868e-01 8.3093498382961017e-01  3.1376176585411189e-03 1.9323193241516243e-01 8.3122104960003595e-01  3.1331682188352407e-03 1.9279933617647030e-01 8.3151365090111218e-01  3.1288619017721892e-03 1.9237230486871632e-01 8.3183926465174651e-01  3.1246786208674123e-03 1.9195033838715572e-01 8.3219191633769363e-01  3.1205439407269190e-03 1.9152988158665238e-01 8.3255804026898628e-01  3.1165394432040145e-03 1.9111554800489178e-01 8.3294896952080355e-01  3.1126606598077316e-03 1.9070741352607670e-01 8.3336242412379158e-01  3.1088994748669171e-03 1.9030529975410634e-01 8.3379588274019012e-01  3.1052395334183200e-03 1.8990843428376014e-01 8.3424633740678822e-01  3.1018078084165623e-03 1.8952444408027619e-01 8.3472909987157751e-01  3.0985199316568663e-03 1.8914864235982529e-01 8.3523206606915179e-01  3.0953961236194136e-03 1.8878246867491102e-01 8.3575650476791241e-01  3.0924623204588780e-03 1.8842761672324784e-01 8.3630493438842302e-01  3.0896564567022416e-03 1.8808048456657636e-01 8.3686909393108688e-01  3.0871464837869799e-03 1.8775158205348036e-01 8.3746719417434745e-01  3.0848072437239392e-03 1.8743337430580087e-01 8.3808414984513191e-01  3.0826352381693764e-03 1.8712571169783179e-01 8.3871920864672944e-01  3.0807156972419178e-03 1.8683413253668871e-01 8.3938049293018413e-01  3.0790281440066561e-03 1.8655750047067254e-01 8.4006501635586550e-01  3.0775644827147875e-03 1.8629542973101992e-01 8.4077123951051413e-01  3.0761973435604168e-03 1.8603969927008351e-01 8.4148682858328538e-01  3.0745711876141294e-03 1.8560124729892311e-01 8.4301909140752962e-01  3.0740620693308954e-03 1.8540241751873371e-01 8.4381131086138350e-01  3.0737253333484719e-03 1.8521518220348343e-01 8.4461814097554033e-01  3.0737417571544841e-03 1.8505187747792523e-01 8.4545369296605943e-01  3.0740026616143988e-03 1.8490528920138360e-01 8.4630830471934515e-01  3.0744747009518228e-03 1.8477322002341537e-01 8.4717894135726646e-01  3.0751244917755238e-03 1.8465337943659527e-01 8.4806290705631515e-01  3.0760853359759494e-03 1.8455514243511456e-01 8.4896921430011996e-01  3.0772661429084042e-03 1.8447227909982022e-01 8.4989069248906313e-01  3.0786400853173787e-03 1.8440295488906355e-01 8.5082521488071083e-01  3.0803778726576545e-03 1.8435946068259290e-01 8.5178267344425851e-01  3.0822118057454296e-03 1.8432278288040013e-01 8.5274609354576392e-01  3.0842198701855014e-03 1.8429850999812825e-01 8.5371989590194142e-01  3.0865584090957383e-03 1.8429815461940013e-01 8.5471209267135773e-01  3.0890926213562393e-03 1.8431208263277157e-01 8.5571419360876722e-01  3.0918133629749042e-03 1.8433973123157013e-01 8.5672516735413418e-01  3.0947136444875447e-03 1.8438069569360024e-01 8.5774402166071895e-01  3.0977791891333645e-03 1.8443402772254652e-01 8.5876947099658796e-01  3.1010356648140877e-03 1.8450181279813155e-01 8.5980174200655679e-01  3.1045357026060275e-03 1.8458835415396832e-01 8.6084120460450553e-01  3.1080356332307186e-03 1.8467495695450750e-01 8.6187958028251499e-01  3.1117925182846070e-03 1.8478176171817429e-01 8.6292338865423135e-01  3.1156208200972210e-03 1.8489447578452020e-01 8.6396653903057452e-01  3.1196242042978235e-03 1.8502146919314080e-01 8.6501051789991257e-01  3.1236999798953629e-03 1.8515480117728086e-01 8.6605204990805684e-01  3.1278933820588048e-03 1.8529832245007993e-01 8.6709074551017273e-01  3.1321803667732958e-03 1.8545036589620248e-01 8.6812487391612159e-01  3.1365432754952550e-03 1.8560973896881874e-01 8.6915303706155012e-01  3.1409693938904298e-03 1.8577565647705396e-01 8.7017381707837516e-01  3.1454385120674539e-03 1.8594668884591692e-01 8.7118594493215451e-01  3.1499558266334052e-03 1.8612361928470669e-01 8.7218766589231433e-01  3.1544979878464067e-03 1.8630476781671679e-01 8.7317765101106770e-01  3.1590205413992122e-03 1.8648633702172485e-01 8.7415641625492346e-01  3.1635658906917145e-03 1.8667271099354760e-01 8.7511967164513982e-01  3.1681467756654066e-03 1.8686573618923272e-01 8.7606351637812430e-01  3.1726352569960785e-03 1.8705331357623986e-01 8.7699525744004714e-01  3.1770819669839278e-03 1.8724082576670689e-01 8.7790906805639624e-01  3.1815237102078013e-03 1.8743268941595331e-01 8.7879820316903423e-01  3.1858583229634075e-03 1.8761859471287018e-01 8.7967177101647598e-01  3.1901152830475202e-03 1.8780223715102407e-01 8.8052363058287997e-01  3.1943306484890134e-03 1.8798854831660927e-01 8.8134412179644961e-01  3.1984289578636180e-03 1.8816954750970338e-01 8.8214187592630389e-01  3.2024006643558913e-03 1.8834432945724605e-01 8.8291745787914699e-01  3.2062451606200224e-03 1.8851356077943240e-01 8.8366739769134728e-01  3.2099697666893500e-03 1.8867905649425165e-01 8.8438570181243525e-01  3.2135452953969391e-03 1.8883751193671594e-01 8.8507683394880088e-01  3.2169694373881635e-03 1.8898941314416992e-01 8.8573747128201608e-01  3.2202339126529748e-03 1.8913445604838913e-01 8.8636576446046789e-01  3.2233248933991581e-03 1.8927114325815789e-01 8.8696352411188883e-01  3.2262331935438838e-03 1.8939842966552917e-01 8.8753220087557527e-01  3.2289582352096422e-03 1.8951770158754938e-01 8.8806472983547624e-01  3.2314942205295886e-03 1.8962903238987572e-01 8.8855839102000811e-01  3.2338284534647733e-03 1.8973045814300418e-01 8.8901777917099145e-01  3.2359547918604510e-03 1.8982157130989541e-01 8.8944244379139381e-01  3.2378699442027290e-03 1.8990234913234791e-01 8.8983116797181838e-01  3.2395678948071703e-03 1.8997185465436744e-01 8.9018620117278746e-01  3.2422971227814208e-03 1.9008116873856629e-01 8.9076859120276264e-01  3.2433340286675185e-03 1.9011389627186023e-01 8.9103359106255164e-01  3.2441349185245503e-03 1.9014284915692123e-01 8.9121992181610488e-01  3.2447088523343752e-03 1.9015671702032652e-01 8.9138767848084743e-01  3.2450527435108020e-03 1.9015968213874887e-01 8.9151477312250360e-01  3.2451678069627603e-03 1.9015221284208786e-01 8.9159938885824375e-01  3.2450554525158392e-03 1.9013329951907124e-01 8.9164713998033873e-01  3.2447157242681325e-03 1.9010277020476762e-01 8.9165890160674111e-01  3.2441532530799464e-03 1.9006319945541289e-01 8.9162377159715367e-01  3.2433662391011917e-03 1.9000863563530929e-01 8.9157061382940672e-01  3.2423632759489567e-03 1.8994747397790293e-01 8.9146119778570554e-01  3.2411485822585952e-03 1.8987571091263397e-01 8.9131714293600317e-01  3.2397272841437376e-03 1.8979539249421604e-01 8.9113038965705715e-01  3.2380942372451484e-03 1.8970145044754969e-01 8.9092399789447096e-01  3.2362662744060589e-03 1.8959960814981472e-01 8.9067639568394563e-01  3.2342534271194144e-03 1.8949106045996483e-01 8.9038575289492028e-01  3.2320548821106634e-03 1.8937350228954866e-01 8.9006316902568428e-01  3.2296821461268851e-03 1.8924850979332325e-01 8.8970550853266017e-01  3.2271415693804206e-03 1.8911617314199583e-01 8.8931490422082515e-01  3.2244378103380980e-03 1.8897640313547509e-01 8.8889368052308360e-01  3.2215913553551409e-03 1.8883182590624656e-01 8.8843717175126313e-01  3.2186156555894813e-03 1.8868362063489716e-01 8.8794502959075428e-01  3.2155047469122709e-03 1.8852954846615008e-01 8.8742588551000201e-01  3.2122704335147264e-03 1.8837072069404764e-01 8.8687904517230343e-01  3.2089276632621131e-03 1.8820852549864350e-01 8.8630372051538997e-01  3.2054901101696187e-03 1.8804400863332871e-01 8.8570031405186445e-01  3.2019713901874159e-03 1.8787815480233330e-01 8.8506950700491893e-01  3.1983783476687193e-03 1.8771106480866695e-01 8.8441358978454687e-01  3.1947272245341379e-03 1.8754401361153744e-01 8.8373288856348597e-01  3.1910278852760958e-03 1.8737749783775939e-01 8.8302897731864127e-01  3.1872905621818672e-03 1.8721205879042754e-01 8.8230335809820282e-01  3.1835282554751876e-03 1.8704856270606518e-01 8.8155707984783771e-01  3.1797375913214104e-03 1.8688619714325838e-01 8.8079274692996701e-01  3.1759492350034281e-03 1.8672763007955698e-01 8.8000977252550461e-01  3.1721986275137920e-03 1.8657600926453907e-01 8.7920709360872373e-01  3.1684678082986471e-03 1.8642891940291700e-01 8.7838932870489650e-01  3.1647807622526558e-03 1.8628832330668024e-01 8.7755661396223095e-01  3.1611298184829970e-03 1.8615308287751539e-01 8.7671145052320132e-01  3.1575341960221833e-03 1.8602466745129334e-01 8.7585448117723397e-01  3.1539805617474257e-03 1.8590159674618198e-01 8.7498754999230044e-01  3.1505644071509842e-03 1.8579210907341137e-01 8.7410924251781452e-01  3.1472663410192486e-03 1.8569408083343497e-01 8.7322209151879815e-01  3.1439799609080613e-03 1.8559788064124036e-01 8.7233000213592504e-01  3.1408607169690016e-03 1.8551686479221322e-01 8.7143092643165831e-01  3.1378844806136163e-03 1.8544861593075501e-01 8.7052691960100814e-01  3.1350862645660731e-03 1.8539571785775200e-01 8.6961973858842434e-01  3.1323009159381727e-03 1.8534423517185550e-01 8.6871023478381704e-01  3.1298126598764578e-03 1.8531759060276301e-01 8.6779976125924918e-01  3.1273902379475894e-03 1.8529640969605729e-01 8.6688898112140067e-01  3.1252185755054679e-03 1.8529565741343582e-01 8.6598005702929148e-01  3.1230540149723889e-03 1.8529556134770789e-01 8.6507038103356326e-01  3.1211815307043956e-03 1.8531881328221042e-01 8.6416539483384036e-01  3.1195420065621175e-03 1.8536040383370814e-01 8.6326553209447943e-01  3.1180660362654213e-03 1.8541471517106425e-01 8.6237001871013608e-01  3.1168025931132414e-03 1.8548544944610684e-01 8.6148086118358247e-01  3.1157236802035319e-03 1.8557030821974568e-01 8.6059786471996325e-01  3.1141442670236091e-03 1.8578392678613295e-01 8.5885351242306751e-01  3.1137180644503709e-03 1.8591805331334982e-01 8.5799646686323017e-01  3.1134587892218272e-03 1.8606458688660663e-01 8.5714713211193705e-01  3.1134398069602668e-03 1.8622888860557144e-01 8.5630940575231151e-01  3.1136215077629263e-03 1.8640792111862206e-01 8.5548200345135306e-01  3.1140175051042936e-03 1.8660259297332069e-01 8.5466615688514302e-01  3.1146224176984388e-03 1.8681240626118292e-01 8.5386214035030306e-01  3.1154410431084830e-03 1.8703760680276640e-01 8.5307081377086047e-01  3.1164753030188661e-03 1.8727821951445228e-01 8.5229291313768740e-01  3.1177293308111407e-03 1.8753441139947657e-01 8.5152940096753038e-01  3.1191697455757368e-03 1.8780372069947010e-01 8.5077864216210264e-01  3.1208574843257521e-03 1.8809025118038725e-01 8.5004575552172534e-01  3.1226583021303693e-03 1.8838463784379098e-01 8.4932129380498922e-01  3.1246786031529921e-03 1.8869408340261593e-01 8.4861397374430791e-01  3.1269092646838748e-03 1.8901777327134803e-01 8.4792399356827819e-01  3.1291655684589298e-03 1.8934328110002197e-01 8.4723613372660811e-01  3.1316782888134781e-03 1.8968587497696818e-01 8.4657083443602488e-01  3.1344181650496145e-03 1.9004327818210182e-01 8.4592724028673005e-01  3.1372455374361315e-03 1.9040624409171170e-01 8.4529305382635100e-01  3.1401966545006820e-03 1.9077702607835864e-01 8.4467224166267285e-01  3.1432712116329573e-03 1.9115543571127949e-01 8.4406562743040570e-01  3.1464785168823207e-03 1.9154185682522967e-01 8.4347520188271408e-01  3.1497898335919633e-03 1.9193427807830821e-01 8.4289898625751025e-01  3.1531823451191820e-03 1.9233115134803874e-01 8.4233513372752111e-01  3.1567125278503371e-03 1.9273549036390755e-01 8.4179233010882693e-01  3.1602820453089848e-03 1.9314135112456302e-01 8.4125896108415044e-01  3.1638961742888059e-03 1.9354877340943261e-01 8.4073706629522238e-01  3.1676194924120252e-03 1.9396104004777151e-01 8.4023734579564235e-01  3.1713503643983698e-03 1.9437222888057318e-01 8.3974669920193523e-01  3.1750999736307097e-03 1.9478272916592224e-01 8.3926788201338720e-01  3.1788675220675330e-03 1.9519211656542415e-01 8.3880266113536661e-01  3.1826499753584269e-03 1.9559982739046156e-01 8.3835255411879983e-01  3.1864232059860284e-03 1.9600426814912147e-01 8.3791537732434851e-01  3.1901656314499232e-03 1.9640408954138261e-01 8.3748878675020655e-01  3.1938561840088920e-03 1.9679808011899144e-01 8.3706995765393055e-01  3.1975429937958202e-03 1.9718735245312777e-01 8.3667352410643681e-01  3.2011696409934595e-03 1.9756931371719177e-01 8.3628872191350001e-01  3.2046748605400830e-03 1.9794168703524956e-01 8.3590115685278332e-01  3.2081300674321215e-03 1.9830591990157348e-01 8.3553356977509718e-01  3.2114996007583207e-03 1.9866027879828188e-01 8.3517960793943702e-01  3.2147536771610107e-03 1.9900357440062741e-01 8.3483267282077567e-01  3.2178967586335319e-03 1.9933510959805775e-01 8.3449808881384469e-01  3.2209077435241956e-03 1.9965410809125531e-01 8.3417084195575186e-01  3.2237930389978331e-03 1.9995942620082127e-01 8.3385929738936870e-01  3.2265236825900212e-03 2.0025071929037253e-01 8.3355298852307891e-01  3.2291018754396265e-03 2.0052681583186291e-01 8.3325864811279993e-01  3.2315177867300554e-03 2.0078707639731491e-01 8.3297532372517913e-01  3.2337537847874878e-03 2.0103134424381019e-01 8.3269636337675423e-01  3.2358139101120302e-03 2.0125801484648334e-01 8.3243141925645703e-01  3.2376866055681022e-03 2.0146688903690052e-01 8.3217663327585889e-01  3.2393590235956951e-03 2.0165807706452557e-01 8.3192602481373423e-01  3.2408322059120373e-03 2.0183026155040393e-01 8.3168657959084247e-01  3.2420994486301838e-03 2.0198202559580500e-01 8.3146250237007979e-01  3.2431531600749502e-03 2.0211519880419385e-01 8.3124150373350214e-01  3.2439881858105238e-03 2.0222878157932103e-01 8.3102635505986255e-01  3.2446047871191488e-03 2.0232102329726270e-01 8.3082587868027269e-01  3.2208329750640402e-03 1.9948700662312807e-01 8.3497298674052622e-01  3.1506669876338127e-03 1.8605520330040792e-01 8.7282932901646582e-01  3.1652264557798801e-03 1.9567154488661939e-01 8.3064229989421345e-01  3.1214608522796674e-03 1.8608987143043992e-01 8.6039278934100893e-01  3.2448639656755930e-03 2.0222706085633729e-01 8.3140196885772444e-01  3.2059291279044671e-03 1.8865426908212327e-01 8.8283321107922175e-01  3.1128350920905453e-03 1.9043850980868568e-01 8.3479453609785270e-01  3.0820225486622626e-03 1.8617929004790409e-01 8.4325570974373498e-01  3.2417998237856066e-03 1.9020437257812242e-01 8.8995023282554842e-01  3.1474898467864997e-03 1.8623363537461979e-01 8.7060175156948583e-01  3.1906564820404068e-03 1.9629252839915273e-01 8.3825370554858558e-01  3.1882592627745111e-03 1.8743871967404668e-01 8.8157140467604200e-01  3.1694316635111348e-03 1.8708989782358013e-01 8.7547507143970671e-01  3.1696125837743644e-03 1.9397023145894310e-01 8.4103112973791161e-01  3.1194889224572895e-03 1.8529365898936809e-01 8.6358002923237520e-01  3.1913130210870044e-03 1.9803603165230768e-01 8.2980410331175092e-01  3.2124258203333265e-03 1.8853420749287295e-01 8.8612715138198150e-01  3.2316365682973245e-03 1.8949410637274824e-01 8.8928946039947110e-01  3.2170738590579485e-03 2.0025050907176384e-01 8.2958438716698946e-01  3.1468063599297841e-03 1.9129518761372794e-01 8.4485438570518789e-01  3.0989492412762487e-03 1.8478101867581997e-01 8.5750837269492641e-01  3.1294568114942699e-03 1.8893189990258963e-01 8.4943266523930805e-01  3.2288637481689459e-03 2.0123021283360829e-01 8.2965317109980985e-01  3.2418895679675081e-03 1.9006987940242492e-01 8.9065658264124825e-01  3.0868124852414954e-03 1.8488467324347135e-01 8.5184845746082638e-01  3.1230954953969515e-03 1.8766469730624374e-01 8.5313749123226545e-01  3.2394696376279895e-03 2.0203493581420603e-01 8.3009643021088919e-01  3.2354956151207093e-03 2.0106399212018525e-01 8.3326419496782389e-01  3.1341404712791265e-03 1.8575834884144030e-01 8.6739606831859972e-01  3.2255535776574062e-03 1.8951508892518476e-01 8.8666943067084902e-01  3.0949580953558088e-03 1.8832272102148281e-01 8.3789697971424670e-01  3.1403167094966314e-03 1.9329545109942473e-01 8.3204503693899323e-01  3.2451341066734697e-03 1.9027127503623434e-01 8.9099317513597509e-01  3.0818160120132739e-03 1.8518924762024311e-01 8.4818631878083284e-01  3.1198166799922731e-03 1.8677820551439175e-01 8.5622676447608503e-01  3.2439584678026221e-03 2.0232022520407381e-01 8.3055892895227146e-01  3.1857909471466827e-03 1.8776613520261573e-01 8.7890487082822177e-01  3.1666323049738274e-03 1.8656786015570059e-01 8.7692627507473053e-01  3.2417576560896250e-03 2.0179570630103932e-01 8.3224647533596596e-01  3.2084160647767369e-03 1.9816026583901741e-01 8.3638130431901858e-01  3.1266032526478861e-03 1.8584722346721388e-01 8.6378097994024972e-01  3.2351063377167645e-03 1.8992793921243076e-01 8.8856219988163743e-01  3.0870773441308810e-03 1.8717822998393449e-01 8.4034220088428357e-01  3.2033574332533646e-03 1.9905737776517626e-01 8.2977112006877118e-01  3.1039908309919225e-03 1.8938836644647955e-01 8.3634477579670330e-01  3.2445034868887200e-03 1.9027424436757318e-01 8.9071824890441642e-01  3.2163317722775048e-03 1.8910574229216889e-01 8.8489273661591794e-01  3.0819946528618156e-03 1.8569391425698331e-01 8.4570407492333466e-01  3.1351590249229788e-03 1.8579263516620689e-01 8.6765096156558863e-01  3.2289372458988589e-03 2.0034501967604998e-01 8.3409560833715313e-01  3.1530515261213813e-03 1.9449146125449485e-01 8.3142080987217915e-01  3.1599774378354636e-03 1.9283761690117934e-01 8.4265604724145571e-01  3.2214203502069008e-03 1.8898110324299308e-01 8.8762183791618943e-01  3.1382752170006668e-03 1.9021627811605282e-01 8.4668434285501881e-01  3.1416756548449812e-03 1.8585877286252769e-01 8.7005149157028494e-01  3.1276887394815693e-03 1.9201151773905009e-01 8.3316040317525664e-01  3.1803218155