<?xml version="1.0"?>
<VTKFile type="UnstructuredGrid"  version="0.1"  >
<UnstructuredGrid>
<Piece  NumberOfPoints="4940" NumberOfCells="9650">
<Points>
<DataArray  type="Float64"  NumberOfComponents="3"  format="ascii">500 250 0  0 250 0  250 500 0  250 0 0  256.8885856082646 499.9050767557906 0  263.7719401218049 499.6203791065173 0  270.6448364229772 499.1461232471188 0  277.5020553257866 498.4826693209355 0  284.3383895508592 497.6305211460281 0  291.1486476865662 496.5903258312597 0  297.9276581259182 495.3628732847843 0  304.6702729675493 493.9490956196674 0  311.3713719748657 492.3500664368026 0  318.0258664141369 490.5670000199653 0  324.6287029687753 488.6012504015818 0  331.1748675330201 486.4543103455647 0  337.6593890460416 484.1278102064655 0  344.0773432429536 481.6235166997244 0  350.4238564271474 478.9433315480048 0  356.694109139292 476.0892900492477 0  362.88333985546 473.0635595140469 0  368.9868485575419 469.8684376402048 0  375.0000003153078 466.5063507640667 0  380.9182288257928 462.9798520074548 0  386.7370398729688 459.2916193419558 0  392.4520147244077 455.444453565817 0  398.0588135356345 451.4412761437442 0  403.5531785622926 447.285127045646 0  408.9309374414144 442.9791624087773 0  414.1880064015299 438.5266521049243 0  419.3203932989752 433.9309773069245 0  424.324200661095 429.1956279150535 0  429.1956286596235 424.3241998957182 0  433.9309780058756 419.3203925397119 0  438.5266527445345 414.1880056671062 0  442.9791630130591 408.9309367076756 0  447.2851276060475 403.5531778422888 0  451.4412766621026 398.0588128303826 0  455.4444540361634 392.4520140460735 0  459.2916197786263 386.7370392045948 0  462.9798524073514 380.9182281752347 0  466.5063511234856 374.9999996927758 0  469.8684379657123 368.9868479560565 0  473.0635598144817 362.8833392617846 0  476.0892903190255 356.6941085676214 0  478.9433317963513 350.4238558609745 0  481.6235169154735 344.0773427117675 0  484.12781039012 337.6593885555221 0  486.4543105028062 331.1748670749914 0  488.601250531677 324.6287025528375 0  490.5670001317469 318.0258660188321 0  492.3500665291326 311.3713716102628 0  493.949095695951 304.6702726271575 0  495.3628733416623 297.9276578347343 0  496.5903258712341 291.1486474470129 0  497.6305211749058 284.3383893426084 0  498.4826693388848 277.502055163614 0  499.1461232580606 270.6448362909296 0  499.6203791109319 263.7719400417897 0  499.9050767571306 256.8885855596534 0  499.9050767559877 243.1114143988867 0  499.6203791069493 236.2280598860241 0  499.1461232485393 229.3551635941651 0  498.4826693235677 222.4979446979962 0  497.6305211491849 215.6616104719064 0  496.5903258357701 208.8513523404629 0  495.3628732906988 202.0723419043604 0  493.9490956264813 195.3297270628552 0  492.3500664487791 188.6286280724281 0  490.5670000344809 181.9741336371959 0  488.6012504175981 175.3712970824318 0  486.4543103623226 168.8251325157939 0  484.1278102222298 162.3406109960628 0  481.6235167152198 155.9226567951971 0  478.9433315621651 149.5761436051346 0  476.0892900516498 143.3058908657982 0  473.063559513628 137.1166601437124 0  469.8684376406648 131.0131514433083 0  466.5063507675389 124.9999996907064 0  462.9798520124137 119.0817711822745 0  459.2916193464549 113.2629601339176 0  455.4444535642773 107.5479852733717 0  451.4412761528674 101.9411864767781 0  447.2851270583545 96.44682145403524 0  442.9791624165781 91.06906256805769 0  438.5266521117469 85.81199360630404 0  433.9309773156125 80.67960671046254 0  429.1956279150353 75.67579933888632 0  424.3241998888952 70.80437133373906 0  419.3203925223282 66.06902197812161 0  414.1880056411937 61.47334723289828 0  408.9309366751728 57.0208369601728 0  403.5531778009394 52.71487236176898 0  398.058812796452 48.55872331295853 0  392.4520140187753 44.55554594490843 0  386.7370391799677 40.70838020528396 0  380.9182281475119 37.02014757560744 0  374.9999996718656 33.49364886444181 0  368.9868479340393 30.13156202237255 0  362.8833392380029 26.93644017348339 0  356.6941085456942 23.91070967062674 0  350.4238558420009 21.0566681953261 0  344.0773426899492 18.37648307566465 0  337.6593885328982 15.87218960140942 0  331.1748670549786 13.54568949032341 0  324.6287025315056 11.39874946165088 0  318.0258660010876 9.432999863235466 0  311.3713716017894 7.649933468721599 0  304.6702726190621 6.050904302234756 0  297.9276578269805 4.637126656823085 0  291.148647441857 3.409674127905504 0  284.3383893425031 2.369478825079682 0  277.502055159398 1.517330660648639 0  270.6448362875833 0.853876741662134 0  263.7719400401456 0.3796208889774277 0  256.8885855592052 0.09492324285704967 0  243.1114143979462 0.09492324403817065 0  236.2280598850882 0.3796208931023841 0  229.3551635938215 0.8538767514891958 0  222.4979446968584 1.517330676558146 0  215.6616104703111 2.369478851036291 0  208.8513523382973 3.409674164591252 0  202.0723419066374 4.637126708856528 0  195.3297270659513 6.050904372824903 0  188.628628074828 7.649933550613184 0  181.9741336377093 9.432999965373938 0  175.3712970793675 11.39874958336037 0  168.8251325057572 13.54568964112298 0  162.340610986655 15.87218978129263 0  155.9226567874317 18.37648328793418 0  149.576143602509 21.05666843898663 0  143.3058908718157 23.91070994551046 0  137.1166601505524 26.93644048291054 0  131.0131514451933 30.13156235831508 0  124.9999996848412 33.49364923584736 0  119.0817711715717 37.0201479941652 0  113.2629601211624 40.70838066187849 0  107.5479852622251 44.55554644345162 0  101.9411864693332 48.55872385260452 0  96.44682143286516 52.71487295812284 0  91.06906254351222 57.02083760363669 0  85.81199358272519 61.4733479087879 0  80.67960667988106 66.06902271253972 0  75.67579930062769 70.80437212218331 0  70.80437129287643 75.67580015310926 0  66.06902193673014 80.67960752263491 0  61.47334718684866 85.81199441168215 0  57.02083692524275 91.0690633672404 0  52.71487232786438 96.44682224262129 0  48.55872328070024 101.941187247437 0  44.55554591578033 107.5479860232332 0  40.7083801742321 113.2629608675606 0  37.02014754791168 119.0817718975441 0  33.49364883372994 125.000000381329 0  30.13156199866361 131.0131521097709 0  26.9364401549829 137.1166607985551 0  23.91070965524918 143.3058914868915 0  21.05666818346614 149.576144185037 0  18.37648306853811 155.9226573275967 0  15.8721895918909 162.3406114925245 0  13.54568948170046 168.8251329701392 0  11.39874945301878 175.3712974960928 0  9.432999857087736 181.9741340206533 0  7.649933466342702 188.6286284076045 0  6.050904301250966 195.3297273853278 0  4.637126656808988 202.0723421730917 0  3.409674127767772 208.8513525589684 0  2.369478824521138 215.6616106615248 0  1.517330660909465 222.4979448382452 0  0.8538767414496533 229.355163714981 0  0.3796208887135322 236.2280599646376 0  0.09492324266324204 243.1114144478261 0  0.0949232442452228 256.8885856095658 0  0.3796208935834784 263.7719401236316 0  0.8538767530323526 270.6448364248016 0  1.517330679476544 277.5020553295092 0  2.369478854618649 284.3383895555228 0  3.409674170191892 291.1486476952655 0  4.6371267162381 297.9276581311522 0  6.050904381420935 304.6702729724059 0  7.649933562385399 311.3713719716595 0  9.43299997979841 318.0258664133013 0  11.3987495994252 324.6287029719946 0  13.54568965885832 331.174867545904 0  15.87218979367188 337.6593890464085 0  18.37648329843151 344.0773432384132 0  21.05666844777872 350.423856417535 0  23.91070995156048 356.6941091410045 0  26.93644048988043 362.8833398632205 0  30.13156235982007 368.9868485575877 0  33.49364924138357 375.0000003247478 0  37.0201480006036 380.9182288389023 0  40.70838066758398 386.7370398875706 0  44.55554644477201 392.4520147396792 0  48.55872386086904 398.0588135419111 0  52.71487295981296 403.5531785693063 0  57.02083760525949 408.9309374584583 0  61.47334790862246 414.1880064170849 0  66.06902271205095 419.320393319588 0  70.80437211216579 424.3242006890749 0  75.67580013809859 429.195628692521 0  80.6796075127923 433.930978054209 0  85.81199439754931 438.5266528008431 0  91.06906334717917 442.9791630582355 0  96.44682221438322 447.2851276501571 0  101.9411872243843 451.441276702356 0  107.5479859945825 455.4444540643537 0  113.2629608446994 459.2916198108319 0  119.0817718768376 462.9798524393601 0  125.0000003647644 466.5063511567065 0  131.0131521012763 469.8684379967393 0  137.1166607840049 473.0635598376539 0  143.3058914748804 476.0892903390826 0  149.5761441732679 478.9433318113714 0  155.9226573130112 481.6235169255377 0  162.3406114779862 484.1278104026658 0  168.8251329570439 486.4543105138039 0  175.3712974805475 488.601250542119 0  181.9741340135204 490.5670001408953 0  188.6286284005059 492.3500665318597 0  195.3297273788229 493.9490956972913 0  202.0723421640089 495.3628733414168 0  208.8513525529672 496.5903258712308 0  215.6616106544547 497.6305211744985 0  222.4979448327038 498.4826693384772 0  229.3551637102845 499.1461232581612 0  236.2280599621369 499.6203791111485 0  243.1114144470173 499.9050767573145 0  155.2373389820306 474.8197567317462 0  25.36256300907667 153.9152755065208 0  432.3709625126712 412.6214396304305 0  6.013151705810699 246.637913163471 0  246.6379131630491 493.986848294322 0  338.6995838441862 22.68244767887072 0  477.3175523131281 338.6995838660569 0  493.9868482700757 246.6379131399102 0  246.6201155078769 6.218451882810491 0  417.6179310263282 72.7156044707053 0  102.2232990934413 445.0100869616822 0  63.66330858966404 92.20354579482142 0  391.3105220491464 50.73522820883105 0  72.79295043967942 418.0702734974704 0  448.290574428537 108.25674339002 0  402.4604651193511 440.7462829841712 0  97.55317348421397 59.11376320116034 0  136.7376477664901 33.58246472647134 0  363.3288394375288 465.6947312928271 0  44.0678766556007 381.0860953771871 0  469.6905266180034 142.3890690100806 0  22.68244791668644 338.6995843487432 0  338.699584349159 477.317552078365 0  173.389488083762 18.6681884918202 0  483.4809734778481 179.7121987795732 0  13.50237455842738 306.4709525540879 0  305.9825168523021 487.24416992
[...]
<PointData  Vectors="f_12"> 
<DataArray  type="Float64"  Name="f_12"  NumberOfComponents="3" format="ascii">7.5652386372200620e-01 7.8391249096993831e-01 3.0309226537829215e-01  7.4158921324538840e-01 7.9316503083371581e-01 2.6724528065591702e-01  7.6805129775074588e-01 7.7151039400348032e-01 3.3766283354997517e-01  7.1241555289061920e-01 7.9575643343439095e-01 2.1474375050227917e-01  7.6818641923155884e-01 7.7132965560153821e-01 3.3811688729896994e-01  7.6830889612467157e-01 7.7116495866132106e-01 3.3852968018020008e-01  7.6842620890388957e-01 7.7100651029988254e-01 3.3892603960903861e-01  7.6853242856392046e-01 7.7086242715880637e-01 3.3928579094577094e-01  7.6863014179893874e-01 7.7072933821495793e-01 3.3961750114863970e-01  7.6871887771936365e-01 7.7060805711539715e-01 3.3991932331619873e-01  7.6879867018571590e-01 7.7049865115478244e-01 3.4019121603071450e-01  7.6887003764649731e-01 7.7040051304839297e-01 3.4043479978726965e-01  7.6893225312261348e-01 7.7031473773070103e-01 3.4064746015456171e-01  7.6898470971585109e-01 7.7024225195249896e-01 3.4082699723492205e-01  7.6902276680697135e-01 7.7018953569503568e-01 3.4095743568108994e-01  7.6906111315207271e-01 7.7013643574555346e-01 3.4108882744057484e-01  7.6907647656009703e-01 7.7011506252809503e-01 3.4114161978951762e-01  7.6908986705282478e-01 7.7009648296461564e-01 3.4118755593771211e-01  7.6909114052986649e-01 7.7009470273634273e-01 3.4119194618827353e-01  7.6908272175390702e-01 7.7010640489854254e-01 3.4116303291511146e-01  7.6906517251573259e-01 7.7013080267955814e-01 3.4110275242330784e-01  7.6903211931895410e-01 7.7017659954070028e-01 3.4098945689711041e-01  7.6898737705893638e-01 7.7023850701336083e-01 3.4083621756330801e-01  7.6893649273374598e-01 7.7030884967734536e-01 3.4066201800139984e-01  7.6887330023523692e-01 7.7039600967165767e-01 3.4044596254875675e-01  7.6879507379886269e-01 7.7050354982018343e-01 3.4017901450615184e-01  7.6870096904956442e-01 7.7063248282553998e-01 3.3985849764889275e-01  7.6860031962267061e-01 7.7076992179904602e-01 3.3951633091328598e-01  7.6848729272568472e-01 7.7092361384532104e-01 3.3913299959633242e-01  7.6835566284977985e-01 7.7110172395172938e-01 3.3868781803163256e-01  7.6821507822657031e-01 7.7129098032686239e-01 3.3821371326772315e-01  7.6805941630323438e-01 7.7149929045391752e-01 3.3769051438349518e-01  7.6788965827822486e-01 7.7172507451255989e-01 3.3712188907033863e-01  7.6770863716213367e-01 7.7196424805051955e-01 3.3651776125401234e-01  7.6750790320652373e-01 7.7222745334283116e-01 3.3585068013835573e-01  7.6729413059248852e-01 7.7250556234482903e-01 3.3514333915480077e-01  7.6706993831988612e-01 7.7279485270244674e-01 3.3440482669668403e-01  7.6682633748867224e-01 7.7310628929778258e-01 3.3360644830464697e-01  7.6656299881546441e-01 7.7343961901877889e-01 3.3274806407388258e-01  7.6628791431527254e-01 7.7378429984283170e-01 3.3185628835961178e-01  7.6600115086050669e-01 7.7413978018209229e-01 3.3093198563466003e-01  7.6569448030866027e-01 7.7451558365088657e-01 3.2994957967358268e-01  7.6536832928335008e-01 7.7491050179685306e-01 3.2891137193576775e-01  7.6502831025115814e-01 7.7531688493418138e-01 3.2783642375235594e-01  7.6466988976959149e-01 7.7573950071499942e-01 3.2671128456982784e-01  7.6429459186365944e-01 7.7617592261986101e-01 3.2554156294430442e-01  7.6390301215915535e-01 7.7662459293065766e-01 3.2433032100670212e-01  7.6349574826675970e-01 7.7708405600815667e-01 3.2308047307545340e-01  7.6306512847184282e-01 7.7756200126565744e-01 3.2176972854160157e-01  7.6261982581210397e-01 7.7804812698199477e-01 3.2042541576591199e-01  7.6215669775845185e-01 7.7854466050877225e-01 3.1903968571880947e-01  7.6167610733899016e-01 7.7905079664859467e-01 3.1761411857830280e-01  7.6117803537995621e-01 7.7956532271665813e-01 3.1615033492971406e-01  7.6065908287144801e-01 7.8009090986219987e-01 3.1463944022010454e-01  7.6012321114221570e-01 7.8062254075998827e-01 3.1309428105197051e-01  7.5957104196613956e-01 7.8115863218326143e-01 3.1151793182071724e-01  7.5899866597504262e-01 7.8170221382016447e-01 3.0990016426752109e-01  7.5840883547387838e-01 7.8224962310291579e-01 3.0825011806835140e-01  7.5780285576643114e-01 7.8279921301747835e-01 3.0657182223464063e-01  7.5718524461552783e-01 7.8334616048708294e-01 3.0487925056079679e-01  7.5586857812036956e-01 7.8446396653439587e-01 3.0133403538056058e-01  7.5519158298793487e-01 7.8501626845265993e-01 2.9954070276589018e-01  7.5449880712827855e-01 7.8556512891252717e-01 2.9772702213887009e-01  7.5378458408235083e-01 7.8611514515968028e-01 2.9587749540520097e-01  7.5305552993565494e-01 7.8665892277767624e-01 2.9401263813746636e-01  7.5231040886163825e-01 7.8719800365835590e-01 2.9212795574547396e-01  7.5154882773728648e-01 7.8773043566269119e-01 2.9022551838309829e-01  7.5077142091667759e-01 7.8825582733487198e-01 2.8830654292628155e-01  7.4997974795684252e-01 7.8877223317992728e-01 2.8637588096430061e-01  7.4917445425559492e-01 7.8927837228164965e-01 2.8443614377069931e-01  7.4835228219075189e-01 7.8977580473035736e-01 2.8247981217449591e-01  7.4752062188165835e-01 7.9025917195888540e-01 2.8052554684689868e-01  7.4667357528250455e-01 7.9073178535706434e-01 2.7855938878328257e-01  7.4581426508168414e-01 7.9119091302121103e-01 2.7658965256125828e-01  7.4494337723424264e-01 7.9163588688831366e-01 2.7461806831057411e-01  7.4406247829746142e-01 7.9206523682563501e-01 2.7264891524047657e-01  7.4317185475994907e-01 7.9247875782415145e-01 2.7068260136340588e-01  7.4227193676392822e-01 7.9287564493623142e-01 2.6872072044220741e-01  7.4136296596478146e-01 7.9325562547964912e-01 2.6676374359068195e-01  7.4044697142654148e-01 7.9361778349383616e-01 2.6481584439124300e-01  7.3952562602328686e-01 7.9396138882502265e-01 2.6288050024358894e-01  7.3859833754896653e-01 7.9428577604828587e-01 2.6095742858872745e-01  7.3766526387344822e-01 7.9459159306654170e-01 2.5904582106010987e-01  7.3673108054822223e-01 7.9487727438914235e-01 2.5715506566459934e-01  7.3579371041785313e-01 7.9514344449317231e-01 2.5528078011674121e-01  7.3485529129646232e-01 7.9538964476311491e-01 2.5342687644491507e-01  7.3391697921447485e-01 7.9561577308105025e-01 2.5159523294426639e-01  7.3298026283463236e-01 7.9582172059160183e-01 2.4978830668137531e-01  7.3204668822291641e-01 7.9600781675487442e-01 2.4800797788828227e-01  7.3111638841709314e-01 7.9617409503661407e-01 2.4625445238146149e-01  7.3019175409163073e-01 7.9632078337229861e-01 2.4453123709866473e-01  7.2927381641811506e-01 7.9644831492525969e-01 2.4283942154517929e-01  7.2836284562187725e-01 7.9655700569446486e-01 2.4117905286732089e-01  7.2746115405813017e-01 7.9664751710557780e-01 2.3955310071409303e-01  7.2657369131228211e-01 7.9672003136645064e-01 2.3796967420306153e-01  7.2569554406436154e-01 7.9677568886626982e-01 2.3641905808162209e-01  7.2482904896532663e-01 7.9681523349563677e-01 2.3490439015851250e-01  7.2398255722697402e-01 7.9683903973011727e-01 2.3343935493612347e-01  7.2314899917519826e-01 7.9684832700164154e-01 2.3201047107623946e-01  7.2232818688410239e-01 7.9684409063992012e-01 2.3061649465526621e-01  7.2153411971874826e-01 7.9682715023997863e-01 2.2928017205639800e-01  7.2075946663095147e-01 7.9679833276524825e-01 2.2798845513823435e-01  7.2000711090563307e-01 7.9675933057466997e-01 2.2674410353212462e-01  7.1927555961089817e-01 7.9671076613055503e-01 2.2554418383352684e-01  7.1856936533610560e-01 7.9665401600750063e-01 2.2439498993375681e-01  7.1788845403011892e-01 7.9659014567033293e-01 2.2329537533499211e-01  7.1723494558741441e-01 7.9652047462725872e-01 2.2224764029151747e-01  7.1661062766124806e-01 7.9644630092966295e-01 2.2125358112237084e-01  7.1601380138551463e-01 7.9636839394397929e-01 2.2030962652709576e-01  7.1544554039074493e-01 7.9628796074189945e-01 2.1941637531038724e-01  7.1490886176533164e-01 7.9620648429149710e-01 2.1857764367070889e-01  7.1440707747953613e-01 7.9612529866841097e-01 2.1779787825022773e-01  7.1394036520098025e-01 7.9604551561765013e-01 2.1707637947430941e-01  7.1350473854377550e-01 7.9596734228795007e-01 2.1640619160681265e-01  7.1310593615115347e-01 7.9589266219500265e-01 2.1579530907834224e-01  7.1274132890863151e-01 7.9582183450550570e-01 2.1523900200861715e-01  7.1213690056632228e-01 7.9569873243652955e-01 2.1432173213067759e-01  7.1185312772989795e-01 7.9563914043304595e-01 2.1389248944798134e-01  7.1165403846567854e-01 7.9559590142280512e-01 2.1359260024119786e-01  7.1147650566450560e-01 7.9555686895672195e-01 2.1332564119816247e-01  7.1133464356775689e-01 7.9552533032524841e-01 2.1311257295693481e-01  7.1123491758206925e-01 7.9550289653771067e-01 2.1296303235137459e-01  7.1117496679277736e-01 7.9548932563105912e-01 2.1287320485050179e-01  7.1115110601096843e-01 7.9548391420823961e-01 2.1283745670766807e-01  7.1116684934762009e-01 7.9548748703915484e-01 2.1286103672497789e-01  7.1120514919772970e-01 7.9549622123546715e-01 2.1291834899537215e-01  7.1130588325751820e-01 7.9551889353628835e-01 2.1306941036532970e-01  7.1143708984948384e-01 7.9554814498122095e-01 2.1326640421403761e-01  7.1160511346415567e-01 7.9558515825944720e-01 2.1351905940670132e-01  7.1180297431577932e-01 7.9562813792770415e-01 2.1381704406286131e-01  7.1204072006142838e-01 7.9567877577407842e-01 2.1417597108503639e-01  7.1232066110640091e-01 7.9573702710148742e-01 2.1459979676869703e-01  7.1263180155259154e-01 7.9580007342798942e-01 2.1507229662758495e-01  7.1297619547858082e-01 7.9586779555673948e-01 2.1559703011161710e-01  7.1335302824225744e-01 7.9593936045042912e-01 2.1617336872080761e-01  7.1376259020141897e-01 7.9601411523200460e-01 2.1680240292689440e-01  7.1420697986545523e-01 7.9609159697841847e-01 2.1748809778929515e-01  7.1468318874185199e-01 7.9617057560946680e-01 2.1822640777661298e-01  7.1518674297404794e-01 7.9624945538947878e-01 2.1901116458857475e-01  7.1571788016389293e-01 7.9632745418377293e-01 2.1984351035185309e-01  7.1627719322859162e-01 7.9640381896944912e-01 2.2072513426084436e-01  7.1686328064289762e-01 7.9647744423176603e-01 2.2165469082820524e-01  7.1747524459717882e-01 7.9654732976066056e-01 2.2263157958825219e-01  7.1811137480303089e-01 7.9661235031653899e-01 2.2365397967727535e-01  7.1877101205778215e-01 7.9667154480456748e-01 2.2472167977658117e-01  7.1945236595118400e-01 7.9672384764268911e-01 2.2583268548076932e-01  7.2015430213512266e-01 7.9676828668577060e-01 2.2698602358234707e-01  7.2087412531350170e-01 7.9680386494660116e-01 2.2817811128495713e-01  7.2161099976368792e-01 7.9682975558483982e-01 2.2940835497460552e-01  7.2236586711726380e-01 7.9684507172329588e-01 2.3067939346501004e-01  7.2313745814450503e-01 7.9684907836212016e-01 2.3198972354245412e-01  7.2392327698666348e-01 7.9684086994439873e-01 2.3333615225123835e-01  7.2472131838789400e-01 7.9681978889908245e-01 2.3471600064981923e-01  7.2553012152287155e-01 7.9678529054809699e-01 2.3612737699440842e-01  7.2634888246210716e-01 7.9673673887321184e-01 2.3756969086023111e-01  7.2717560468265330e-01 7.9667360980349444e-01 2.3904028659395773e-01  7.2801519574580165e-01 7.9659488018002145e-01 2.4054853689982336e-01  7.2885880737672715e-01 7.9650108572606937e-01 2.4207905520155981e-01  7.2970551181660925e-01 7.9639159115429936e-01 2.4363110826394849e-01  7.3055912535126011e-01 7.9626590552741094e-01 2.4521164808350907e-01  7.3141632804018408e-01 7.9612378056359379e-01 2.4681564901847500e-01  7.3227632647332841e-01 7.9596513441473027e-01 2.4844189067101838e-01  7.3313412659449806e-01 7.9579085124085780e-01 2.5008112125782045e-01  7.3399520816345432e-01 7.9559911477039469e-01 2.5174482925788505e-01  7.3485493612232600e-01 7.9539107829325018e-01 2.5342401187867764e-01  7.3571144144627487e-01 7.9516762533148144e-01 2.5511449551641663e-01  7.3656553681631820e-01 7.9492726193959928e-01 2.5681996924398365e-01  7.3741783699298635e-01 7.9467103756292645e-01 2.5853991600410331e-01  7.3826462163393480e-01 7.9439936855249038e-01 2.6026809184062644e-01  7.3910567793193860e-01 7.9411251990130771e-01 2.6200394480202210e-01  7.3994088397982705e-01 7.9381073887733267e-01 2.6374711227577768e-01  7.4076824227906457e-01 7.9349511281341278e-01 2.6549308407201688e-01  7.4240247948993254e-01 7.9282141879133594e-01 2.6900047296284219e-01  7.4320531607284868e-01 7.9246568958218966e-01 2.7075265446304236e-01  7.4400000647657905e-01 7.9209699174854742e-01 2.7250685609782449e-01  7.4478420016544666e-01 7.9171710190106503e-01 2.7425701651835266e-01  7.4555776829258558e-01 7.9132629821941225e-01 2.7600284390070584e-01  7.4632066429575150e-01 7.9092506468124046e-01 2.7774378189169135e-01  7.4707203151905555e-01 7.9051427039283062e-01 2.7947750605377036e-01  7.4781155682418821e-01 7.9009466799327066e-01 2.8120265896888791e-01  7.4853893306949060e-01 7.8966690336347867e-01 2.8291807801304392e-01  7.4925369935860620e-01 7.8923176166372011e-01 2.8462215969320731e-01  7.4995522038179241e-01 7.8879008498810865e-01 2.8631296254079147e-01  7.5064268583014848e-01 7.8834336906137414e-01 2.8798727409501623e-01  7.5131768312684921e-01 7.8789086790841634e-01 2.8964878195968757e-01  7.5198003342609443e-01 7.8743337735021979e-01 2.9129627389574186e-01  7.5262575107920682e-01 7.8697438154470867e-01 2.9291896627985214e-01  7.5326181149120242e-01 7.8650924916962717e-01 2.9453410089458115e-01  7.5388392306748286e-01 7.8604188262723584e-01 2.9612984997477648e-01  7.5448731039432004e-01 7.8557672471758866e-01 2.9769284520741984e-01  7.5507816254282389e-01 7.8510934792519360e-01 2.9923889780914564e-01  7.5565490309549277e-01 7.8464217011946003e-01 3.0076226360843011e-01  7.5621781060073168e-01 7.8417515482423328e-01 3.0226358602402309e-01  7.5676602376448843e-01 7.8370980471890550e-01 3.0373957385507355e-01  7.5730085686763038e-01 7.8324575098730131e-01 3.0519279864351112e-01  7.5782222909421404e-01 7.8278353462722838e-01 3.0662249179042750e-01  7.5832743189924989e-01 7.8232633139552721e-01 3.0802023503348552e-01  7.5881895138759659e-01 7.8187248392168662e-01 3.0939215622524291e-01  7.5929875002918845e-01 7.8142093451859862e-01 3.1074275588161293e-01  7.5976098388625168e-01 7.8097762185083153e-01 3.1205504355604458e-01  7.6021224171957247e-01 7.8053688850260294e-01 3.1334688029456154e-01  7.6064975272893898e-01 7.8010216246553155e-01 3.1460933548328807e-01  7.6107320660671585e-01 7.7967423813343462e-01 3.1584092306382755e-01  7.6148353113158629e-01 7.7925272208710794e-01 3.1704363458624407e-01  7.6188072523074579e-01 7.7883824254184475e-01 3.1821661857709888e-01  7.6226596824968107e-01 7.7843003813684331e-01 3.1936275300886557e-01  7.6264064803169940e-01 7.7802713743823126e-01 3.2048549476156041e-01  7.6299927202637374e-01 7.7763602472223292e-01 3.2156760995765282e-01  7.6334469295206508e-01 7.7725408594662226e-01 3.2261705753117786e-01  7.6368366936340293e-01 7.7687433075779977e-01 3.2365369406639533e-01  7.6400808446849688e-01 7.7650621142858745e-01 3.2465223811231686e-01  7.6431891392830509e-01 7.7614906816375406e-01 3.2561510187548881e-01  7.6462025483236995e-01 7.7579876360025568e-01 3.2655416920382113e-01  7.6490995033372700e-01 7.7545818160105673e-01 3.2746221102998058e-01  7.6519045078041148e-01 7.7512471743473810e-01 3.2834655248221456e-01  7.6545699914935950e-01 7.7480457009979165e-01 3.2919142027459503e-01  7.6571543429601541e-01 7.7449094827663922e-01 3.3001505305512596e-01  7.6596250188576809e-01 7.7418817910311732e-01 3.3080655703130724e-01  7.6620047523511603e-01 7.7389387984550506e-01 3.3157262499009660e-01  7.6643027212034132e-01 7.7360719399801015e-01 3.3231583574866447e-01  7.6664705351404783e-01 7.7333428705227458e-01 3.3302041382576303e-01  7.6685351895522214e-01 7.7307221776596458e-01 3.3369446541704750e-01  7.6705403083638768e-01 7.7281578364932746e-01 3.3435175039075665e-01  7.6724304509250996e-01 7.7257220800031357e-01 3.3497392974476253e-01  7.6742152234025385e-01 7.7234052985166890e-01 3.3556379080868010e-01  7.6759189673147055e-01 7.7211790888138832e-01 3.3612890729715533e-01  7.6775393179496354e-01 7.7190487213809511e-01 3.3666819865401959e-01  7.6790515876180254e-01 7.7170481021605897e-01 3.3717325139351806e-01  7.6501732757070229e-01 7.7533071130364128e-01 3.2780054184177432e-01  7.2916150067533425e-01 7.9646348737039818e-01 2.4263240143440132e-01  7.6755589057589946e-01 7.7216453895849957e-01 3.3601019442111280e-01  7.4117484302478676e-01 7.9333349361100169e-01 2.6635880549167668e-01  7.6793540770290936e-01 7.7166441682486309e-01 3.3727485760050863e-01  7.1969102255699513e-01 7.9673936114261013e-01 2.2622482610909248e-01  7.6365673141430901e-01 7.7690295136677723e-01 3.2357388332592180e-01  7.5617182583684406e-01 7.8421182757952257e-01 3.0214376427492207e-01  7.1234073223585015e-01 7.9574101587659152e-01 2.1463052508091657e-01  7.3158539839186010e-01 7.9609227388925852e-01 2.4713645933853040e-01  7.6203193695592553e-01 7.7867851187065062e-01 3.1866585953670890e-01  7.2055909709564492e-01 7.9678930424953887e-01 2.2765555445042243e-01  7.2694337923804841e-01 7.9669156902969218e-01 2.3862762604564039e-01  7.5951580380091333e-01 7.8121356129058406e-01 3.1135796159808921e-01  7.3811739491200212e-01 7.9444575633178205e-01 2.5996955394127702e-01  7.6850699764955810e-01 7.7089659829803892e-01 3.3920019789949279e-01  7.1602393950317900e-01 7.9636980334209828e-01 2.2032554642613358e-01  7.1286502390062911e-01 7.9584599760802310e-01 2.1542770911568065e-01  7.6900087937694639e-01 7.7021962631835539e-01 3.4088279942723226e-01  7.5594812738784800e-01 7.8439992459912067e-01 3.0154302125487237e-01  7.4358614260144162e-01 7.9228866539185705e-01 2.7159464544908779e-01  7.5162717135190349e-01 7.8767887841742668e-01 2.9041641493432296e-01  7.6904177333694212e-01 7.7016295109556632e-01 3.4102299066735797e-01  7.1145938285275478e-01 7.9555296078854842e-01 2.1330013692296432e-01  7.4865590567172502e-01 7.8959411735076024e-01 2.8319986652268231e-01  7.4815564966851111e-01 7.8989385693458358e-01 2.8201233198711451e-01  7.6884839814808470e-01 7.7042999960729630e-01 3.4036138313097747e-01  7.6650134937370362e-01 7.7351772937562857e-01 3.3254689697218059e-01  7.3443461536110743e-01 7.9549447227625303e-01 2.5260130294974487e-01  7.1579063668236897e-01 7.9633729345043969e-01 2.1995852479617681e-01  7.6088059639038352e-01 7.7986764109157170e-01 3.1528298200942323e-01  7.6615707340326067e-01 7.7394668800685362e-01 3.3143434564793289e-01  7.1125922595733959e-01 7.9550821474519495e-01 2.1299972161354885e-01  7.5185393663416222e-01 7.8751894685646717e-01 2.9098543882828282e-01  7.4515880863332051e-01 7.9152962640773084e-01 2.7510037902720125e-01  7.6853864855264997e-01 7.7085368190201708e-01 3.3930734738326401e-01  7.2362312788961447e-01 7.9684427399459401e-01 2.3282214256205105e-01  7.2515619689604949e-01 7.9680266632704966e-01 2.3547356517397519e-01  7.6729506699962469e-01 7.7250458179771475e-01 3.3514605520481455e-01  7.6380139725926444e-01 7.7674118451080010e-01 3.2401551456726568e-01  7.3793157625368655e-01 7.9450809420608226e-01 2.5958636175100114e-01  7.1382255369265635e-01 7.9602448694047812e-01 2.1689518682969977e-01  7.5873409097091615e-01 7.8194888157105391e-01 3.0915860468222195e-01  7.6877214669461602e-01 7.7053463547253520e-01 3.4010146417814996e-01  7.6234450350854455e-01 7.7834410451519642e-01 3.1960061479382534e-01  7.1160831369246691e-01 7.9558569393672773e-01 2.1352411014604158e-01  7.1762357445219538e-01 7.9656270422123621e-01 2.2287010221036321e-01  7.5410188778913723e-01 7.8587288440733427e-01 2.9669656648614823e-01  7.3435346340330954e-01 7.9551266249180785e-01 2.5244510743544746e-01  7.6580533619668922e-01 7.7438080537754606e-01 3.3030307874285203e-01  7.6689165248825952e-01 7.7302283431631402e-01 3.3382052401728596e-01  7.5806986733878456e-01 7.8256040419824968e-01 3.0730639846684382e-01  7.1450675351978021e-01 7.9614158515911315e-01 2.1795273400667534e-01  7.5420274642825191e-01 7.8579750548850547e-01 2.9695396585734818e-01  7.3186148012390440e-01 7.9604318747250347e-01 2.4765589108494560e-01  7.6515612258739829e-01 7.7516448558296502e-01 3.2824005797575090e-01  7.6082817421