<?xml version="1.0"?>
<VTKFile type="UnstructuredGrid"  version="0.1"  >
<UnstructuredGrid>
<Piece  NumberOfPoints="4940" NumberOfCells="9650">
<Points>
<DataArray  type="Float64"  NumberOfComponents="3"  format="ascii">500 250 0  0 250 0  250 500 0  250 0 0  256.8885856082646 499.9050767557906 0  263.7719401218049 499.6203791065173 0  270.6448364229772 499.1461232471188 0  277.5020553257866 498.4826693209355 0  284.3383895508592 497.6305211460281 0  291.1486476865662 496.5903258312597 0  297.9276581259182 495.3628732847843 0  304.6702729675493 493.9490956196674 0  311.3713719748657 492.3500664368026 0  318.0258664141369 490.5670000199653 0  324.6287029687753 488.6012504015818 0  331.1748675330201 486.4543103455647 0  337.6593890460416 484.1278102064655 0  344.0773432429536 481.6235166997244 0  350.4238564271474 478.9433315480048 0  356.694109139292 476.0892900492477 0  362.88333985546 473.0635595140469 0  368.9868485575419 469.8684376402048 0  375.0000003153078 466.5063507640667 0  380.9182288257928 462.9798520074548 0  386.7370398729688 459.2916193419558 0  392.4520147244077 455.444453565817 0  398.0588135356345 451.4412761437442 0  403.5531785622926 447.285127045646 0  408.9309374414144 442.9791624087773 0  414.1880064015299 438.5266521049243 0  419.3203932989752 433.9309773069245 0  424.324200661095 429.1956279150535 0  429.1956286596235 424.3241998957182 0  433.9309780058756 419.3203925397119 0  438.5266527445345 414.1880056671062 0  442.9791630130591 408.9309367076756 0  447.2851276060475 403.5531778422888 0  451.4412766621026 398.0588128303826 0  455.4444540361634 392.4520140460735 0  459.2916197786263 386.7370392045948 0  462.9798524073514 380.9182281752347 0  466.5063511234856 374.9999996927758 0  469.8684379657123 368.9868479560565 0  473.0635598144817 362.8833392617846 0  476.0892903190255 356.6941085676214 0  478.9433317963513 350.4238558609745 0  481.6235169154735 344.0773427117675 0  484.12781039012 337.6593885555221 0  486.4543105028062 331.1748670749914 0  488.601250531677 324.6287025528375 0  490.5670001317469 318.0258660188321 0  492.3500665291326 311.3713716102628 0  493.949095695951 304.6702726271575 0  495.3628733416623 297.9276578347343 0  496.5903258712341 291.1486474470129 0  497.6305211749058 284.3383893426084 0  498.4826693388848 277.502055163614 0  499.1461232580606 270.6448362909296 0  499.6203791109319 263.7719400417897 0  499.9050767571306 256.8885855596534 0  499.9050767559877 243.1114143988867 0  499.6203791069493 236.2280598860241 0  499.1461232485393 229.3551635941651 0  498.4826693235677 222.4979446979962 0  497.6305211491849 215.6616104719064 0  496.5903258357701 208.8513523404629 0  495.3628732906988 202.0723419043604 0  493.9490956264813 195.3297270628552 0  492.3500664487791 188.6286280724281 0  490.5670000344809 181.9741336371959 0  488.6012504175981 175.3712970824318 0  486.4543103623226 168.8251325157939 0  484.1278102222298 162.3406109960628 0  481.6235167152198 155.9226567951971 0  478.9433315621651 149.5761436051346 0  476.0892900516498 143.3058908657982 0  473.063559513628 137.1166601437124 0  469.8684376406648 131.0131514433083 0  466.5063507675389 124.9999996907064 0  462.9798520124137 119.0817711822745 0  459.2916193464549 113.2629601339176 0  455.4444535642773 107.5479852733717 0  451.4412761528674 101.9411864767781 0  447.2851270583545 96.44682145403524 0  442.9791624165781 91.06906256805769 0  438.5266521117469 85.81199360630404 0  433.9309773156125 80.67960671046254 0  429.1956279150353 75.67579933888632 0  424.3241998888952 70.80437133373906 0  419.3203925223282 66.06902197812161 0  414.1880056411937 61.47334723289828 0  408.9309366751728 57.0208369601728 0  403.5531778009394 52.71487236176898 0  398.058812796452 48.55872331295853 0  392.4520140187753 44.55554594490843 0  386.7370391799677 40.70838020528396 0  380.9182281475119 37.02014757560744 0  374.9999996718656 33.49364886444181 0  368.9868479340393 30.13156202237255 0  362.8833392380029 26.93644017348339 0  356.6941085456942 23.91070967062674 0  350.4238558420009 21.0566681953261 0  344.0773426899492 18.37648307566465 0  337.6593885328982 15.87218960140942 0  331.1748670549786 13.54568949032341 0  324.6287025315056 11.39874946165088 0  318.0258660010876 9.432999863235466 0  311.3713716017894 7.649933468721599 0  304.6702726190621 6.050904302234756 0  297.9276578269805 4.637126656823085 0  291.148647441857 3.409674127905504 0  284.3383893425031 2.369478825079682 0  277.502055159398 1.517330660648639 0  270.6448362875833 0.853876741662134 0  263.7719400401456 0.3796208889774277 0  256.8885855592052 0.09492324285704967 0  243.1114143979462 0.09492324403817065 0  236.2280598850882 0.3796208931023841 0  229.3551635938215 0.8538767514891958 0  222.4979446968584 1.517330676558146 0  215.6616104703111 2.369478851036291 0  208.8513523382973 3.409674164591252 0  202.0723419066374 4.637126708856528 0  195.3297270659513 6.050904372824903 0  188.628628074828 7.649933550613184 0  181.9741336377093 9.432999965373938 0  175.3712970793675 11.39874958336037 0  168.8251325057572 13.54568964112298 0  162.340610986655 15.87218978129263 0  155.9226567874317 18.37648328793418 0  149.576143602509 21.05666843898663 0  143.3058908718157 23.91070994551046 0  137.1166601505524 26.93644048291054 0  131.0131514451933 30.13156235831508 0  124.9999996848412 33.49364923584736 0  119.0817711715717 37.0201479941652 0  113.2629601211624 40.70838066187849 0  107.5479852622251 44.55554644345162 0  101.9411864693332 48.55872385260452 0  96.44682143286516 52.71487295812284 0  91.06906254351222 57.02083760363669 0  85.81199358272519 61.4733479087879 0  80.67960667988106 66.06902271253972 0  75.67579930062769 70.80437212218331 0  70.80437129287643 75.67580015310926 0  66.06902193673014 80.67960752263491 0  61.47334718684866 85.81199441168215 0  57.02083692524275 91.0690633672404 0  52.71487232786438 96.44682224262129 0  48.55872328070024 101.941187247437 0  44.55554591578033 107.5479860232332 0  40.7083801742321 113.2629608675606 0  37.02014754791168 119.0817718975441 0  33.49364883372994 125.000000381329 0  30.13156199866361 131.0131521097709 0  26.9364401549829 137.1166607985551 0  23.91070965524918 143.3058914868915 0  21.05666818346614 149.576144185037 0  18.37648306853811 155.9226573275967 0  15.8721895918909 162.3406114925245 0  13.54568948170046 168.8251329701392 0  11.39874945301878 175.3712974960928 0  9.432999857087736 181.9741340206533 0  7.649933466342702 188.6286284076045 0  6.050904301250966 195.3297273853278 0  4.637126656808988 202.0723421730917 0  3.409674127767772 208.8513525589684 0  2.369478824521138 215.6616106615248 0  1.517330660909465 222.4979448382452 0  0.8538767414496533 229.355163714981 0  0.3796208887135322 236.2280599646376 0  0.09492324266324204 243.1114144478261 0  0.0949232442452228 256.8885856095658 0  0.3796208935834784 263.7719401236316 0  0.8538767530323526 270.6448364248016 0  1.517330679476544 277.5020553295092 0  2.369478854618649 284.3383895555228 0  3.409674170191892 291.1486476952655 0  4.6371267162381 297.9276581311522 0  6.050904381420935 304.6702729724059 0  7.649933562385399 311.3713719716595 0  9.43299997979841 318.0258664133013 0  11.3987495994252 324.6287029719946 0  13.54568965885832 331.174867545904 0  15.87218979367188 337.6593890464085 0  18.37648329843151 344.0773432384132 0  21.05666844777872 350.423856417535 0  23.91070995156048 356.6941091410045 0  26.93644048988043 362.8833398632205 0  30.13156235982007 368.9868485575877 0  33.49364924138357 375.0000003247478 0  37.0201480006036 380.9182288389023 0  40.70838066758398 386.7370398875706 0  44.55554644477201 392.4520147396792 0  48.55872386086904 398.0588135419111 0  52.71487295981296 403.5531785693063 0  57.02083760525949 408.9309374584583 0  61.47334790862246 414.1880064170849 0  66.06902271205095 419.320393319588 0  70.80437211216579 424.3242006890749 0  75.67580013809859 429.195628692521 0  80.6796075127923 433.930978054209 0  85.81199439754931 438.5266528008431 0  91.06906334717917 442.9791630582355 0  96.44682221438322 447.2851276501571 0  101.9411872243843 451.441276702356 0  107.5479859945825 455.4444540643537 0  113.2629608446994 459.2916198108319 0  119.0817718768376 462.9798524393601 0  125.0000003647644 466.5063511567065 0  131.0131521012763 469.8684379967393 0  137.1166607840049 473.0635598376539 0  143.3058914748804 476.0892903390826 0  149.5761441732679 478.9433318113714 0  155.9226573130112 481.6235169255377 0  162.3406114779862 484.1278104026658 0  168.8251329570439 486.4543105138039 0  175.3712974805475 488.601250542119 0  181.9741340135204 490.5670001408953 0  188.6286284005059 492.3500665318597 0  195.3297273788229 493.9490956972913 0  202.0723421640089 495.3628733414168 0  208.8513525529672 496.5903258712308 0  215.6616106544547 497.6305211744985 0  222.4979448327038 498.4826693384772 0  229.3551637102845 499.1461232581612 0  236.2280599621369 499.6203791111485 0  243.1114144470173 499.9050767573145 0  155.2373389820306 474.8197567317462 0  25.36256300907667 153.9152755065208 0  432.3709625126712 412.6214396304305 0  6.013151705810699 246.637913163471 0  246.6379131630491 493.986848294322 0  338.6995838441862 22.68244767887072 0  477.3175523131281 338.6995838660569 0  493.9868482700757 246.6379131399102 0  246.6201155078769 6.218451882810491 0  417.6179310263282 72.7156044707053 0  102.2232990934413 445.0100869616822 0  63.66330858966404 92.20354579482142 0  391.3105220491464 50.73522820883105 0  72.79295043967942 418.0702734974704 0  448.290574428537 108.25674339002 0  402.4604651193511 440.7462829841712 0  97.55317348421397 59.11376320116034 0  136.7376477664901 33.58246472647134 0  363.3288394375288 465.6947312928271 0  44.0678766556007 381.0860953771871 0  469.6905266180034 142.3890690100806 0  22.68244791668644 338.6995843487432 0  338.699584349159 477.317552078365 0  173.389488083762 18.6681884918202 0  483.4809734778481 179.7121987795732 0  13.50237455842738 306.4709525540879 0  305.9825168523021 487.24416992
[...]
<PointData  Vectors="f_12"> 
<DataArray  type="Float64"  Name="f_12"  NumberOfComponents="3" format="ascii">7.8994083750078170e-01 7.2277858096744030e-01 4.3935322138881105e-01  7.8102993993787639e-01 7.4875951649436978e-01 3.8899162073233362e-01  7.9543889306162885e-01 6.9612476729732065e-01 4.8602926795281920e-01  7.5982046599514219e-01 7.8092277592942538e-01 3.1222019960659025e-01  7.9549476159948973e-01 6.9576277491725858e-01 4.8663699531008547e-01  7.9554469680407935e-01 6.9543646555993022e-01 4.8718421961820224e-01  7.9559312833912488e-01 6.9511795119584097e-01 4.8771791552790167e-01  7.9563656233913105e-01 6.9483034340670213e-01 4.8819941058742994e-01  7.9567659100321830e-01 6.9456358356769188e-01 4.8864564039372865e-01  7.9571294463911280e-01 6.9432001190565962e-01 4.8905279528153561e-01  7.9574570158983249e-01 6.9409943935689544e-01 4.8942127107055428e-01  7.9577522414187396e-01 6.9389973048761577e-01 4.8975469758849954e-01  7.9580112633966449e-01 6.9372377091851933e-01 4.9004831587854264e-01  7.9582312251708831e-01 6.9357378735575592e-01 4.9029847432439055e-01  7.9583854744009552e-01 6.9346807791589204e-01 4.9047468750931622e-01  7.9585584850284941e-01 6.9334982295610093e-01 4.9067184403165709e-01  7.9586185343038107e-01 6.9330825036006960e-01 4.9074106895991026e-01  7.9586853273184677e-01 6.9326240660002958e-01 4.9081746545526372e-01  7.9587012046897720e-01 6.9325141829652026e-01 4.9083576470576018e-01  7.9586801842425570e-01 6.9326593914818713e-01 4.9081158127621916e-01  7.9586258505055008e-01 6.9330351029248394e-01 4.9074900536490512e-01  7.9585027119468688e-01 6.9338786377079420e-01 4.9060840520369997e-01  7.9583319499308935e-01 6.9350460875944098e-01 4.9041377231322059e-01  7.9581456664133610e-01 6.9363200573281480e-01 4.9020135559098954e-01  7.9579085698343011e-01 6.9379360063411666e-01 4.8993181032691530e-01  7.9576060797873094e-01 6.9399857472211079e-01 4.8958967458072022e-01  7.9572320547906217e-01 6.9425063656961894e-01 4.8916865831506845e-01  7.9568407846035505e-01 6.9451318016972918e-01 4.8872987133469409e-01  7.9563990205561430e-01 6.9480775286307750e-01 4.8823715824440500e-01  7.9558694566873633e-01 6.9515809030247755e-01 4.8765059686269002e-01  7.9553085264508749e-01 6.9552644826655730e-01 4.8703326945529785e-01  7.9546806345531373e-01 6.9593504968226272e-01 4.8634769454161331e-01  7.9539899904054001e-01 6.9638042628129992e-01 4.8559953520500265e-01  7.9532534551958201e-01 6.9685082915742103e-01 4.8480831627684062e-01  7.9524207970949767e-01 6.9737653037737313e-01 4.8392275010877783e-01  7.9515299182098242e-01 6.9793266281183974e-01 4.8298450246637659e-01  7.9505968848534714e-01 6.9850842433397564e-01 4.8201159120755516e-01  7.9495667684554139e-01 6.9913554366869390e-01 4.8094996533625217e-01  7.9484357712476539e-01 6.9981420221216117e-01 4.7979883795567790e-01  7.9472509946424696e-01 7.0051514374894563e-01 4.7860755154930801e-01  7.9460136654642488e-01 7.0123648344920575e-01 4.7737903853587399e-01  7.9446712692964627e-01 7.0200667685291351e-01 4.7606434884418836e-01  7.9432229507529883e-01 7.0282420436510695e-01 4.7466557728269604e-01  7.9417045358262750e-01 7.0366649461067043e-01 4.7322078141404639e-01  7.9400856471116676e-01 7.0454846854020392e-01 4.7170388878492869e-01  7.9383732275254903e-01 7.0546474447394580e-01 4.7012370937895370e-01  7.9365700568584241e-01 7.0641143687579189e-01 4.6848635412997713e-01  7.9346784877003251e-01 7.0738535611304798e-01 4.6679686302674467e-01  7.9326468684527518e-01 7.0841016538014046e-01 4.6501334394293881e-01  7.9305269930680733e-01 7.0945815326653761e-01 4.6318362881113134e-01  7.9283014825739773e-01 7.1053463318502819e-01 4.6129754649532323e-01  7.9259645779333143e-01 7.1164151473375548e-01 4.5935147456409409e-01  7.9235206023138649e-01 7.1277350966319764e-01 4.5735380524241642e-01  7.9209382941858508e-01 7.1394296506096477e-01 4.5528212403206131e-01  7.9182443764438870e-01 7.1513522215154057e-01 4.5316162362178819e-01  7.9154416183800969e-01 7.1634683624880302e-01 4.5099777688194698e-01  7.9124999483966096e-01 7.1758877118099418e-01 4.4877033406325800e-01  7.9094359101600908e-01 7.1885173535287439e-01 4.4649523083677328e-01  7.9062552831484156e-01 7.2013222772572560e-01 4.4417828462160364e-01  7.9029912330786733e-01 7.2141560878517508e-01 4.4184601568078052e-01  7.8958564545639942e-01 7.2410780473467451e-01 4.3691382838535958e-01  7.8921417957876849e-01 7.2545845333269299e-01 4.3442099563035352e-01  7.8883056366491811e-01 7.2681684288642223e-01 4.3190033655582732e-01  7.8842963964264456e-01 7.2820147971996330e-01 4.2931728334629199e-01  7.8801613124504810e-01 7.2959125959066151e-01 4.2670969814120902e-01  7.8758907397357503e-01 7.3099049829442420e-01 4.2406961620017936e-01  7.8714807877822401e-01 7.3239603083686544e-01 4.2140139128409737e-01  7.8669309151139499e-01 7.3380814535351369e-01 4.1870439909566637e-01  7.8622512631083252e-01 7.3522202942157633e-01 4.1598709481688445e-01  7.8574452544240536e-01 7.3663501415372568e-01 4.1325392474771327e-01  7.8524851146766550e-01 7.3805427501831211e-01 4.1049045625817832e-01  7.8474210719959558e-01 7.3946396602500175e-01 4.0772689385439459e-01  7.8422154859645066e-01 7.4087436652402405e-01 4.0494291741306010e-01  7.8368796149803976e-01 7.4228067959941346e-01 4.0214710054620117e-01  7.8314206679749920e-01 7.4368050034526001e-01 3.9934390930108937e-01  7.8258485955231893e-01 7.4507014814109995e-01 3.9654013468148264e-01  7.8201641425119905e-01 7.4644947115292759e-01 3.9373599167870960e-01  7.8143698005920825e-01 7.4781687934871199e-01 3.9093417612510728e-01  7.8084656097139293e-01 7.4917222582241449e-01 3.8813482537349708e-01  7.8024642603039807e-01 7.5051266440574982e-01 3.8534375434410734e-01  7.7963788015711710e-01 7.5183527481373991e-01 3.8256701537877641e-01  7.7902010832069590e-01 7.5314037379038834e-01 3.7980302851978981e-01  7.7839363073534218e-01 7.5442826810554697e-01 3.7705193746591431e-01  7.7776144658098512e-01 7.5569290971719227e-01 3.7432665508509677e-01  7.7712224724504542e-01 7.5693704646245130e-01 3.7162128497657404e-01  7.7647752593070851e-01 7.5815815913530116e-01 3.6894151343971193e-01  7.7582812420278657e-01 7.5935511641383879e-01 3.6629010687606101e-01  7.7517514172961299e-01 7.6052642965594885e-01 3.6367069697949189e-01  7.7451998385616139e-01 7.6167087561651359e-01 3.6108687707760578e-01  7.7386264010761729e-01 7.6278862427943905e-01 3.5853840321808478e-01  7.7320502813492320e-01 7.6387762025006345e-01 3.5603084134846269e-01  7.7254801647110694e-01 7.6493748337598411e-01 3.5356588251149002e-01  7.7189153324907145e-01 7.6596893530596022e-01 3.5114234547916046e-01  7.7123830842276475e-01 7.6696930015056308e-01 3.4876787384726982e-01  7.7059218523605755e-01 7.6793384452196489e-01 3.4645472856442661e-01  7.6994835550776597e-01 7.6887098424965383e-01 3.4418381423095828e-01  7.6930963409217779e-01 7.6977795846239716e-01 3.4196312239741516e-01  7.6868330418999420e-01 7.7064563271945419e-01 3.3981618870467423e-01  7.6806246249122967e-01 7.7148524433050591e-01 3.3771683532651869e-01  7.6744779810744124e-01 7.7229729294134142e-01 3.3566537553805320e-01  7.6685196498387198e-01 7.7306621153594635e-01 3.3370230805454437e-01  7.6626716117794180e-01 7.7380342623462939e-01 3.3180009152892742e-01  7.6569708843045481e-01 7.7450678231700421e-01 3.2996700578552779e-01  7.6514031380078806e-01 7.7517896559364763e-01 3.2819721294893062e-01  7.6460085447771875e-01 7.7581666334244748e-01 3.2650127520203920e-01  7.6407861742326033e-01 7.7642148545074996e-01 3.2487678335772002e-01  7.6357586173696057e-01 7.7699239695399458e-01 3.2332852679165019e-01  7.6309435397499448e-01 7.7752893777501875e-01 3.2185977447857383e-01  7.6263212262240254e-01 7.7803461344809832e-01 3.2046270665455778e-01  7.6219034551786002e-01 7.7850963351967872e-01 3.1913874735605507e-01  7.6177251943074420e-01 7.7895163570172754e-01 3.1789646912268671e-01  7.6138123889713760e-01 7.7935892507392324e-01 3.1674215761457131e-01  7.6101692604321658e-01 7.7973252771879209e-01 3.1567505901725640e-01  7.6067535262037689e-01 7.8007798637910830e-01 3.1468112000927584e-01  7.6036266666381169e-01 7.8039022794112511e-01 3.1377662576316095e-01  7.6007620206722271e-01 7.8067303056936344e-01 3.1295236282286387e-01  7.5960301001235719e-01 7.8113280398254070e-01 3.1160081632460318e-01  7.5937400883117190e-01 7.8135323075418162e-01 3.1094943857452156e-01  7.5922131231393064e-01 7.8149819319477432e-01 3.1051785448892522e-01  7.5908169859902042e-01 7.8163021840058200e-01 3.1012396815547577e-01  7.5896989958360683e-01 7.8173555048307397e-01 3.0980904808109377e-01  7.5889223904563285e-01 7.8180835066870746e-01 3.0959080071455247e-01  7.5884695973232597e-01 7.8185069607616398e-01 3.0946368976358518e-01  7.5882953345213977e-01 7.8186699664222681e-01 3.0941475844539329e-01  7.5884405126044707e-01 7.8185342671809532e-01 3.0945550401184407e-01  7.5887208292518515e-01 7.8182736992820490e-01 3.0953395795009059e-01  7.5895634499697884e-01 7.8174830148935304e-01 3.0977088755536730e-01  7.5906269050638975e-01 7.8164817174878864e-01 3.1007036119194742e-01  7.5919808656294285e-01 7.8152009601697536e-01 3.1045243876465617e-01  7.5935544409518174e-01 7.8137056057263954e-01 3.1089736717816335e-01  7.5954492143888896e-01 7.8118915936342770e-01 3.1143493444636977e-01  7.5976928067699157e-01 7.8097248487127224e-01 3.1207402227550080e-01  7.6001676728798062e-01 7.8073129561058452e-01 3.1278190477522022e-01  7.6028997325617631e-01 7.8046239661021410e-01 3.1356688954081674e-01  7.6058797157360380e-01 7.8016579145211895e-01 3.1442756665964289e-01  7.6091107953191528e-01 7.7984021373952905e-01 3.1536616759281427e-01  7.6126123123178513e-01 7.7948255878520145e-01 3.1638987974455340e-01  7.6163594605719120e-01 7.7909447673565901e-01 3.1749263917106757e-01  7.6203039944881412e-01 7.7867985496128023e-01 3.1866176380822342e-01  7.6244491203909603e-01 7.7823723901995490e-01 3.1989976181391166e-01  7.6288022837897673e-01 7.7776470963277189e-01 3.2121040892417851e-01  7.6333491916261920e-01 7.7726257268484966e-01 3.2259113480313933e-01  7.6380822632503509e-01 7.7673045302215449e-01 3.2404132476028613e-01  7.6429843449995005e-01 7.7616898553476765e-01 3.2555754370849055e-01  7.6480498280399978e-01 7.7557757362951374e-01 3.2713979182941727e-01  7.6532623045859371e-01 7.7495685509115741e-01 3.2878475723037093e-01  7.6586111121645595e-01 7.7430684782161618e-01 3.3049084846611126e-01  7.6640708452661443e-01 7.7362948371894213e-01 3.3225160414167770e-01  7.6696349995327018e-01 7.7292443714482406e-01 3.3406656103542109e-01  7.6753058762779947e-01 7.7218999209494676e-01 3.3593856059559818e-01  7.6810831305789817e-01 7.7142525037008813e-01 3.3786880112525486e-01  7.6869377816275586e-01 7.7063263602831000e-01 3.3984967320029752e-01  7.6928542882771278e-01 7.6981322958468679e-01 3.4187742457996367e-01  7.6988193407718020e-01 7.6896799231584290e-01 3.4394876702018667e-01  7.7048245224155287e-01 7.6809704910960552e-01 3.4606238547039020e-01  7.7108529999956421e-01 7.6720180130824434e-01 3.4821394211267215e-01  7.7169475625806194e-01 7.6627486864997429e-01 3.5042016133010234e-01  7.7230363931537060e-01 7.6532663813423829e-01 3.5265592121518102e-01  7.7291049542639834e-01 7.6435816827704939e-01 3.5491769339237794e-01  7.7351913062467426e-01 7.6336339457412261e-01 3.5721963634765819e-01  7.7412673533115517e-01 7.6234555827685924e-01 3.5955322831502085e-01  7.7473243963769778e-01 7.6130570938694131e-01 3.6191573439356040e-01  7.7533236669147665e-01 7.6025041617983224e-01 3.6429221949438895e-01  7.7593119527766852e-01 7.5917015683452715e-01 3.6670321546537366e-01  7.7652476374341661e-01 7.5807254985408978e-01 3.6913181084813490e-01  7.7711230813416987e-01 7.5695969756572257e-01 3.7157387250794521e-01  7.7769386480062075e-01 7.5582914257342115e-01 3.7403330556795239e-01  7.7827027550577432e-01 7.5468137738442564e-01 3.7651038527382219e-01  7.7883878715357358e-01 7.5352051254875685e-01 3.7899547176049703e-01  7.7939932542851575e-01 7.5234690260367731e-01 3.8148800024892632e-01  7.7995190535944547e-01 7.5116079629154930e-01 3.8398764701687377e-01  7.8049513471608911e-01 7.4996574934150873e-01 3.8648729439150303e-01  7.8155554439986663e-01 7.4754446993685875e-01 3.9149607218359866e-01  7.8207037273068025e-01 7.4632459416238406e-01 3.9399270414038551e-01  7.8257606890347364e-01 7.4509618959654389e-01 3.9648928497969127e-01  7.8307092128775513e-01 7.4386460020889700e-01 3.9897555007593383e-01  7.8355501943690231e-01 7.4262992146500373e-01 4.0145158000345416e-01  7.8402842433334630e-01 7.4139277029823525e-01 4.0391657144287313e-01  7.8449077792061217e-01 7.4015480212212414e-01 4.0636763216806659e-01  7.8494188665130682e-01 7.3891758521628848e-01 4.0880218899631271e-01  7.8538175974899016e-01 7.3768194274479892e-01 4.1121907498785321e-01  7.8581023007957318e-01 7.3644926926836984e-01 4.1361603459400120e-01  7.8622706337554549e-01 7.3522110163954379e-01 4.1599052111833879e-01  7.8663152523114499e-01 7.3400155459499228e-01 4.1833541278887981e-01  7.8702559777449954e-01 7.3278516290039164e-01 4.2066151313832317e-01  7.8740867382777091e-01 7.3157513712978017e-01 4.2296327815207652e-01  7.8777848269198203e-01 7.3038004730624273e-01 4.2522499446096074e-01  7.8814029346289827e-01 7.2918353380215861e-01 4.2747794496104868e-01  7.8849068901322639e-01 7.2799842488651700e-01 4.2969858220428075e-01  7.8882656153488528e-01 7.2683700677690821e-01 4.3186453620515364e-01  7.8915289346274686e-01 7.2568295679080319e-01 4.3400673016942104e-01  7.8946838096328553e-01 7.2454330823027624e-01 4.3611290221327098e-01  7.8977346633610768e-01 7.2341693276979446e-01 4.3818540298886433e-01  7.9006788697736141e-01 7.2230640129051071e-01 4.4022007466587953e-01  7.9035253334045641e-01 7.2121009135751080e-01 4.4222047984405111e-01  7.9062764433618749e-01 7.2012809492370822e-01 4.4418682970849832e-01  7.9089113112746900e-01 7.1907041455264031e-01 4.4610155968220810e-01  7.9114547303030780e-01 7.1802847293661176e-01 4.4798064875773402e-01  7.9139161218027765e-01 7.1700024108998017e-01 4.4982836627247030e-01  7.9162595331694241e-01 7.1600157373843321e-01 4.5161649895485190e-01  7.9185317729777727e-01 7.1501433657084168e-01 4.5337810132172818e-01  7.9207141106019596e-01 7.1404830932135432e-01 4.5509617798292085e-01  7.9228051614806705e-01 7.1310525678424252e-01 4.5676799534847429e-01  7.9248137089134252e-01 7.1218258501820075e-01 4.5839855543354807e-01  7.9267404928733765e-01 7.1128149660654938e-01 4.5998617899801419e-01  7.9285946851402589e-01 7.1039887749323749e-01 4.6153670158626825e-01  7.9303859327601789e-01 7.0953140621953092e-01 4.6305630535361436e-01  7.9320777887887561e-01 7.0869813365065726e-01 4.6451202568103550e-01  7.9336933360128636e-01 7.0788902856151437e-01 4.6592176762091936e-01  7.9352755473221370e-01 7.0708393675094683e-01 4.6732098317960613e-01  7.9367718862148140e-01 7.0631026215894366e-01 4.6866225909367237e-01  7.9381907698211474e-01 7.0556492286422801e-01 4.6995128841133510e-01  7.9395590299076790e-01 7.0483549775417409e-01 4.7120994992361276e-01  7.9408630938590907e-01 7.0413011953870541e-01 4.7242444803224581e-01  7.9421202227987031e-01 7.0344021240124333e-01 4.7360976124810805e-01  7.9432994066877249e-01 7.0278418281511612e-01 4.7473458652671863e-01  7.9444400662733539e-01 7.0214080876630602e-01 4.7583552464813106e-01  7.9455206639770715e-01 7.0152319394817120e-01 4.7689037735562501e-01  7.9465564393417720e-01 7.0092379349923506e-01 4.7791227228450034e-01  7.9475531574932801e-01 7.0034003605046113e-01 4.7890579322012039e-01  7.9484822342642225e-01 6.9978890517344339e-01 4.7984215873132741e-01  7.9493611964155586e-01 6.9926135705526427e-01 4.8073699537802572e-01  7.9502163065818920e-01 6.9874272070369736e-01 4.8161542767246374e-01  7.9510149485669901e-01 6.9825292909564829e-01 4.8244375463731487e-01  7.9517632654375747e-01 6.9778911067134164e-01 4.8322705160909640e-01  7.9524765615379100e-01 6.9734275124950706e-01 4.8397987094371014e-01  7.9531530108672399e-01 6.9691566784290149e-01 4.8469932341251643e-01  7.9537793434025239e-01 6.9651647296548191e-01 4.8537095246158612e-01  7.9412645870997134e-01 7.0390962940220048e-01 4.7280332731392039e-01  7.7252546774144104e-01 7.6497495880541133e-01 3.5347940167091718e-01  7.9525470944341559e-01 6.9729601206238256e-01 4.8405832779659597e-01  7.8075805084248895e-01 7.4937603809731546e-01 3.8771369322457150e-01  7.9538292822343826e-01 6.9648307615001259e-01 4.8542691304375007e-01  7.6547085337992393e-01 7.7478105913793027e-01 3.2924639636181519e-01  7.9353369209680180e-01 7.0704690440884488e-01 4.6738426304415281e-01  7.8974361988262354e-01 7.2352334007309205e-01 4.3798897531262110e-01  7.5978391637683673e-01 7.8095770139724974e-01 3.1211678511168633e-01  7.7419900328406255e-01 7.6221979582666410e-01 3.5983802691361338e-01  7.9274042890060814e-01 7.1096633429090528e-01 4.6054014172957836e-01  7.6617996664884902e-01 7.7391246847404926e-01 3.3151755688358747e-01  7.7086897183400394e-01 7.6752316050434011e-01 3.4744214121223616e-01  7.9149419098216922e-01 7.1656464350785043e-01 4.5060888902048551e-01  7.7869784208225112e-01 7.5380688428696518e-01 3.7838206785387424e-01  7.9563957945924546e-01 6.9480820093841622e-01 4.8823617984494727e-01  7.6269817509774995e-01 7.7796282344628187e-01 3.2066171290259826e-01  7.6022007325356034e-01 7.8053091495381710e-01 3.1336656778425276e-01  7.9582918910896627e-01 6.9353070663567917e-01 4.9037012114698902e-01  7.8962048248291250e-01 7.2398388491980958e-01 4.3714307586466128e-01  7.8227892890509454e-01 7.4581663860374414e-01 3.9502493913842446e-01  7.8719876960120649e-01 7.3224173657275471e-01 4.2169685944336244e-01  7.9584139517836283e-01 6.9344703178220002e-01 4.9050957129282535e-01  7.5910208156155268e-01 7.8161048428195889e-01 3.1018225722814519e-01  7.8542693355952498e-01 7.3754767341455929e-01 4.1147881140882525e-01  7.8514322201668874e-01 7.3835495622078873e-01 4.0990417311167998e-01  7.9575863690959059e-01 6.9401022879128060e-01 4.8956999307881199e-01  7.9477716615908556e-01 7.0020962971932010e-01 4.7912730069361170e-01  7.7623631218832190e-01 7.5860867200333015e-01 3.6794770924547537e-01  7.6247666829634042e-01 7.7820208336753527e-01 3.1999652074651919e-01  7.9219563355616740e-01 7.1348419096737403e-01 4.5609563755893501e-01  7.9466116221350813e-01 7.0088770901387942e-01 4.7797310752919003e-01  7.5893156829064290e-01 7.8177094823605719e-01 3.0970218946511091e-01  7.8731884375595373e-01 7.3185539349810824e-01 4.2242933702273588e-01  7.8330146864605832e-01 7.4327989310569909e-01 4.0014994612230537e-01  7.9563171641975905e-01 6.9486080270810169e-01 4.8814819664107095e-01  7.6842497648371810e-01 7.7099658226612267e-01 3.3894049993094372e-01  7.6961369088706943e-01 7.6935006560463559e-01 3.4301457581681777e-01  7.9511551080935916e-01 6.9816489721837560e-01 4.8259228343976113e-01  7.9357338406427780e-01 7.0684757940479204e-01 4.6773101451836785e-01  7.7861490723646820e-01 7.5398084173872748e-01 3.7801226705916996e-01  7.6094435282587447e-01 7.7980563651462775e-01 3.1546444144344382e-01  7.9110441734692094e-01 7.1819118613727817e-01 4.4768603202443724e-01  7.9573989368912923e-01 6.9413613308336231e-01 4.8935965909398654e-01  7.9291025918277391e-01 7.1014852369947035e-01 4.6197456733457110e-01  7.5920362783178519e-01 7.8151432524931141e-01 3.1046891028570389e-01  7.6389026242551972e-01 7.7663616701961757e-01 3.2429575843340913e-01  7.8859896706795363e-01 7.2762098190179403e-01 4.3040200299590342e-01  7.7613331137360575e-01 7.5879596914476588e-01 3.6753133111359576e-01  7.9447463622887371e-01 7.0196499481770902e-01 4.7613573152859306e-01  7.9497411902265191e-01 6.9902839813536988e-01 4.8113129221010192e-01  7.9074788930576489e-01 7.1964731446651187e-01 4.4505792827158469e-01  7.6151490743231853e-01 7.7921987311705998e-01 3.1713649829377588e-01  7.8866184579302145e-01 7.2740946976054288e-01 4.3079814614293366e-01  7.7444366077574611e-01 7.6180384618577690e-01 3.6078601130105331e-01  7.9421892440201547e-01 7.0339787641914819e-01 4.7368173208564307e-01  7.9215163153