<?xml version="1.0"?>
<VTKFile type="UnstructuredGrid"  version="0.1"  >
<UnstructuredGrid>
<Piece  NumberOfPoints="4940" NumberOfCells="9650">
<Points>
<DataArray  type="Float64"  NumberOfComponents="3"  format="ascii">500 250 0  0 250 0  250 500 0  250 0 0  256.8885856082646 499.9050767557906 0  263.7719401218049 499.6203791065173 0  270.6448364229772 499.1461232471188 0  277.5020553257866 498.4826693209355 0  284.3383895508592 497.6305211460281 0  291.1486476865662 496.5903258312597 0  297.9276581259182 495.3628732847843 0  304.6702729675493 493.9490956196674 0  311.3713719748657 492.3500664368026 0  318.0258664141369 490.5670000199653 0  324.6287029687753 488.6012504015818 0  331.1748675330201 486.4543103455647 0  337.6593890460416 484.1278102064655 0  344.0773432429536 481.6235166997244 0  350.4238564271474 478.9433315480048 0  356.694109139292 476.0892900492477 0  362.88333985546 473.0635595140469 0  368.9868485575419 469.8684376402048 0  375.0000003153078 466.5063507640667 0  380.9182288257928 462.9798520074548 0  386.7370398729688 459.2916193419558 0  392.4520147244077 455.444453565817 0  398.0588135356345 451.4412761437442 0  403.5531785622926 447.285127045646 0  408.9309374414144 442.9791624087773 0  414.1880064015299 438.5266521049243 0  419.3203932989752 433.9309773069245 0  424.324200661095 429.1956279150535 0  429.1956286596235 424.3241998957182 0  433.9309780058756 419.3203925397119 0  438.5266527445345 414.1880056671062 0  442.9791630130591 408.9309367076756 0  447.2851276060475 403.5531778422888 0  451.4412766621026 398.0588128303826 0  455.4444540361634 392.4520140460735 0  459.2916197786263 386.7370392045948 0  462.9798524073514 380.9182281752347 0  466.5063511234856 374.9999996927758 0  469.8684379657123 368.9868479560565 0  473.0635598144817 362.8833392617846 0  476.0892903190255 356.6941085676214 0  478.9433317963513 350.4238558609745 0  481.6235169154735 344.0773427117675 0  484.12781039012 337.6593885555221 0  486.4543105028062 331.1748670749914 0  488.601250531677 324.6287025528375 0  490.5670001317469 318.0258660188321 0  492.3500665291326 311.3713716102628 0  493.949095695951 304.6702726271575 0  495.3628733416623 297.9276578347343 0  496.5903258712341 291.1486474470129 0  497.6305211749058 284.3383893426084 0  498.4826693388848 277.502055163614 0  499.1461232580606 270.6448362909296 0  499.6203791109319 263.7719400417897 0  499.9050767571306 256.8885855596534 0  499.9050767559877 243.1114143988867 0  499.6203791069493 236.2280598860241 0  499.1461232485393 229.3551635941651 0  498.4826693235677 222.4979446979962 0  497.6305211491849 215.6616104719064 0  496.5903258357701 208.8513523404629 0  495.3628732906988 202.0723419043604 0  493.9490956264813 195.3297270628552 0  492.3500664487791 188.6286280724281 0  490.5670000344809 181.9741336371959 0  488.6012504175981 175.3712970824318 0  486.4543103623226 168.8251325157939 0  484.1278102222298 162.3406109960628 0  481.6235167152198 155.9226567951971 0  478.9433315621651 149.5761436051346 0  476.0892900516498 143.3058908657982 0  473.063559513628 137.1166601437124 0  469.8684376406648 131.0131514433083 0  466.5063507675389 124.9999996907064 0  462.9798520124137 119.0817711822745 0  459.2916193464549 113.2629601339176 0  455.4444535642773 107.5479852733717 0  451.4412761528674 101.9411864767781 0  447.2851270583545 96.44682145403524 0  442.9791624165781 91.06906256805769 0  438.5266521117469 85.81199360630404 0  433.9309773156125 80.67960671046254 0  429.1956279150353 75.67579933888632 0  424.3241998888952 70.80437133373906 0  419.3203925223282 66.06902197812161 0  414.1880056411937 61.47334723289828 0  408.9309366751728 57.0208369601728 0  403.5531778009394 52.71487236176898 0  398.058812796452 48.55872331295853 0  392.4520140187753 44.55554594490843 0  386.7370391799677 40.70838020528396 0  380.9182281475119 37.02014757560744 0  374.9999996718656 33.49364886444181 0  368.9868479340393 30.13156202237255 0  362.8833392380029 26.93644017348339 0  356.6941085456942 23.91070967062674 0  350.4238558420009 21.0566681953261 0  344.0773426899492 18.37648307566465 0  337.6593885328982 15.87218960140942 0  331.1748670549786 13.54568949032341 0  324.6287025315056 11.39874946165088 0  318.0258660010876 9.432999863235466 0  311.3713716017894 7.649933468721599 0  304.6702726190621 6.050904302234756 0  297.9276578269805 4.637126656823085 0  291.148647441857 3.409674127905504 0  284.3383893425031 2.369478825079682 0  277.502055159398 1.517330660648639 0  270.6448362875833 0.853876741662134 0  263.7719400401456 0.3796208889774277 0  256.8885855592052 0.09492324285704967 0  243.1114143979462 0.09492324403817065 0  236.2280598850882 0.3796208931023841 0  229.3551635938215 0.8538767514891958 0  222.4979446968584 1.517330676558146 0  215.6616104703111 2.369478851036291 0  208.8513523382973 3.409674164591252 0  202.0723419066374 4.637126708856528 0  195.3297270659513 6.050904372824903 0  188.628628074828 7.649933550613184 0  181.9741336377093 9.432999965373938 0  175.3712970793675 11.39874958336037 0  168.8251325057572 13.54568964112298 0  162.340610986655 15.87218978129263 0  155.9226567874317 18.37648328793418 0  149.576143602509 21.05666843898663 0  143.3058908718157 23.91070994551046 0  137.1166601505524 26.93644048291054 0  131.0131514451933 30.13156235831508 0  124.9999996848412 33.49364923584736 0  119.0817711715717 37.0201479941652 0  113.2629601211624 40.70838066187849 0  107.5479852622251 44.55554644345162 0  101.9411864693332 48.55872385260452 0  96.44682143286516 52.71487295812284 0  91.06906254351222 57.02083760363669 0  85.81199358272519 61.4733479087879 0  80.67960667988106 66.06902271253972 0  75.67579930062769 70.80437212218331 0  70.80437129287643 75.67580015310926 0  66.06902193673014 80.67960752263491 0  61.47334718684866 85.81199441168215 0  57.02083692524275 91.0690633672404 0  52.71487232786438 96.44682224262129 0  48.55872328070024 101.941187247437 0  44.55554591578033 107.5479860232332 0  40.7083801742321 113.2629608675606 0  37.02014754791168 119.0817718975441 0  33.49364883372994 125.000000381329 0  30.13156199866361 131.0131521097709 0  26.9364401549829 137.1166607985551 0  23.91070965524918 143.3058914868915 0  21.05666818346614 149.576144185037 0  18.37648306853811 155.9226573275967 0  15.8721895918909 162.3406114925245 0  13.54568948170046 168.8251329701392 0  11.39874945301878 175.3712974960928 0  9.432999857087736 181.9741340206533 0  7.649933466342702 188.6286284076045 0  6.050904301250966 195.3297273853278 0  4.637126656808988 202.0723421730917 0  3.409674127767772 208.8513525589684 0  2.369478824521138 215.6616106615248 0  1.517330660909465 222.4979448382452 0  0.8538767414496533 229.355163714981 0  0.3796208887135322 236.2280599646376 0  0.09492324266324204 243.1114144478261 0  0.0949232442452228 256.8885856095658 0  0.3796208935834784 263.7719401236316 0  0.8538767530323526 270.6448364248016 0  1.517330679476544 277.5020553295092 0  2.369478854618649 284.3383895555228 0  3.409674170191892 291.1486476952655 0  4.6371267162381 297.9276581311522 0  6.050904381420935 304.6702729724059 0  7.649933562385399 311.3713719716595 0  9.43299997979841 318.0258664133013 0  11.3987495994252 324.6287029719946 0  13.54568965885832 331.174867545904 0  15.87218979367188 337.6593890464085 0  18.37648329843151 344.0773432384132 0  21.05666844777872 350.423856417535 0  23.91070995156048 356.6941091410045 0  26.93644048988043 362.8833398632205 0  30.13156235982007 368.9868485575877 0  33.49364924138357 375.0000003247478 0  37.0201480006036 380.9182288389023 0  40.70838066758398 386.7370398875706 0  44.55554644477201 392.4520147396792 0  48.55872386086904 398.0588135419111 0  52.71487295981296 403.5531785693063 0  57.02083760525949 408.9309374584583 0  61.47334790862246 414.1880064170849 0  66.06902271205095 419.320393319588 0  70.80437211216579 424.3242006890749 0  75.67580013809859 429.195628692521 0  80.6796075127923 433.930978054209 0  85.81199439754931 438.5266528008431 0  91.06906334717917 442.9791630582355 0  96.44682221438322 447.2851276501571 0  101.9411872243843 451.441276702356 0  107.5479859945825 455.4444540643537 0  113.2629608446994 459.2916198108319 0  119.0817718768376 462.9798524393601 0  125.0000003647644 466.5063511567065 0  131.0131521012763 469.8684379967393 0  137.1166607840049 473.0635598376539 0  143.3058914748804 476.0892903390826 0  149.5761441732679 478.9433318113714 0  155.9226573130112 481.6235169255377 0  162.3406114779862 484.1278104026658 0  168.8251329570439 486.4543105138039 0  175.3712974805475 488.601250542119 0  181.9741340135204 490.5670001408953 0  188.6286284005059 492.3500665318597 0  195.3297273788229 493.9490956972913 0  202.0723421640089 495.3628733414168 0  208.8513525529672 496.5903258712308 0  215.6616106544547 497.6305211744985 0  222.4979448327038 498.4826693384772 0  229.3551637102845 499.1461232581612 0  236.2280599621369 499.6203791111485 0  243.1114144470173 499.9050767573145 0  155.2373389820306 474.8197567317462 0  25.36256300907667 153.9152755065208 0  432.3709625126712 412.6214396304305 0  6.013151705810699 246.637913163471 0  246.6379131630491 493.986848294322 0  338.6995838441862 22.68244767887072 0  477.3175523131281 338.6995838660569 0  493.9868482700757 246.6379131399102 0  246.6201155078769 6.218451882810491 0  417.6179310263282 72.7156044707053 0  102.2232990934413 445.0100869616822 0  63.66330858966404 92.20354579482142 0  391.3105220491464 50.73522820883105 0  72.79295043967942 418.0702734974704 0  448.290574428537 108.25674339002 0  402.4604651193511 440.7462829841712 0  97.55317348421397 59.11376320116034 0  136.7376477664901 33.58246472647134 0  363.3288394375288 465.6947312928271 0  44.0678766556007 381.0860953771871 0  469.6905266180034 142.3890690100806 0  22.68244791668644 338.6995843487432 0  338.699584349159 477.317552078365 0  173.389488083762 18.6681884918202 0  483.4809734778481 179.7121987795732 0  13.50237455842738 306.4709525540879 0  305.9825168523021 487.24416992
[...]
<PointData  Vectors="f_12"> 
<DataArray  type="Float64"  Name="f_12"  NumberOfComponents="3" format="ascii">5.5397230114525031e-01 1.0513309742272794e-01 8.2260415229150396e-01  5.6443746609458112e-01 1.2103338795118129e-01 8.7836814705581590e-01  5.4137782633545461e-01 8.9932409084209283e-02 7.4718546014797793e-01  5.8014163391667462e-01 1.5112826574809138e-01 9.4800997055189162e-01  5.4124511147533882e-01 8.9793559000160256e-02 7.4634845101148328e-01  5.4112831742589440e-01 8.9671747908106905e-02 7.4561113080606423e-01  5.4101734789401679e-01 8.9556312339793248e-02 7.4491000422925602e-01  5.4092049666466091e-01 8.9455798653824817e-02 7.4429764432218593e-01  5.4083413158943316e-01 8.9366364427635847e-02 7.4375121685031653e-01  5.4075904266196495e-01 8.9288753674184110e-02 7.4327584796427837e-01  5.4069515709460103e-01 8.9222826568736591e-02 7.4287121086850172e-01  5.4064167604348945e-01 8.9167713253622896e-02 7.4253232897005916e-01  5.4059959136826241e-01 8.9124391810640621e-02 7.4226556749857031e-01  5.4056972816997217e-01 8.9093677280538713e-02 7.4207622700339892e-01  5.4055842149751054e-01 8.9082065251338091e-02 7.4200451744625306e-01  5.4054543104277075e-01 8.9068699034528756e-02 7.4192215048897425e-01  5.4056254825915273e-01 8.9086306928134573e-02 7.4203068389118809e-01  5.4058088365650836e-01 8.9105155289269697e-02 7.4214694991668395e-01  5.4061420733719601e-01 8.9139436448907622e-02 7.4235822148075958e-01  5.4065920834412096e-01 8.9185774578946567e-02 7.4264343563641655e-01  5.4071499241585685e-01 8.9243286205929848e-02 7.4299684328746096e-01  5.4078982800948594e-01 8.9320568529123304e-02 7.4347074308566785e-01  5.4087840114711638e-01 8.9412193791614900e-02 7.4403134883251154e-01  5.4097330019959555e-01 8.9510573478243108e-02 7.4463156264448549e-01  5.4108255606977262e-01 8.9624100384467206e-02 7.4532209492097401e-01  5.4120939293572889e-01 8.9756285345004572e-02 7.4612301823154714e-01  5.4135473223022479e-01 8.9908226454987500e-02 7.4703988497213969e-01  5.4150600039376917e-01 9.0066896961838075e-02 7.4799313237883847e-01  5.4167069484840769e-01 9.0240293688245779e-02 7.4902976605143956e-01  5.4185662895242492e-01 9.0436851120142298e-02 7.5019857897870135e-01  5.4205086170764116e-01 9.0643072057501189e-02 7.5141786521697529e-01  5.4226106483013792e-01 9.0867313781389181e-02 7.5273536001412367e-01  5.4248568500971683e-01 9.1108104049610047e-02 7.5414099833178494e-01  5.4272083091790435e-01 9.1361514236976915e-02 7.5560991697448299e-01  5.4297663119622985e-01 9.1638747353871466e-02 7.5720484215789396e-01  5.4324440979482302e-01 9.1930667765877591e-02 7.5887118710376567e-01  5.4352075687996271e-01 9.2233796446025251e-02 7.6058719840709033e-01  5.4381608802251846e-01 9.2559854335649408e-02 7.6241701027681674e-01  5.4413015409118559e-01 9.2908976345086255e-02 7.6435829360153162e-01  5.4445318433787149e-01 9.3270612419936089e-02 7.6634998060640269e-01  5.4478483913865428e-01 9.3644625218542027e-02 7.6838948948826002e-01  5.4513419597348356e-01 9.4041603118415626e-02 7.7053194959188354e-01  5.4550028516261240e-01 9.4460859208831960e-02 7.7277054784340016e-01  5.4587605039975629e-01 9.4894727591999295e-02 7.7506134074242572e-01  5.4626616288943886e-01 9.5348958447860704e-02 7.7743203007987538e-01  5.4666864595978870e-01 9.5821639480308016e-02 7.7986978755960334e-01  5.4708231016632525e-01 9.6311760740127692e-02 7.8236660145924430e-01  5.4750604650805945e-01 9.6818314187164592e-02 7.8491520762602196e-01  5.4794730324845409e-01 9.7350841588027051e-02 7.8755896236455003e-01  5.4839680461220175e-01 9.7898368661182344e-02 7.9024186778881766e-01  5.4885691484639687e-01 9.8464335895394689e-02 7.9297687656579108e-01  5.4932725401991811e-01 9.9048504842530263e-02 7.9576113279351457e-01  5.4980708376466803e-01 9.9650459144039291e-02 7.9858930464579669e-01  5.5029925532060886e-01 1.0027415941387016e-01 8.0147727346141195e-01  5.5079952876874050e-01 1.0091467647207937e-01 8.0439921555703986e-01  5.5130692560626682e-01 1.0157109028664407e-01 8.0734872623463205e-01  5.5182461674850891e-01 1.0224789564086069e-01 8.1034324566395155e-01  5.5234966099939864e-01 1.0294160095114667e-01 8.1336510759987724e-01  5.5288086525847102e-01 1.0365105809711264e-01 8.1640620202045167e-01  5.5341425098663422e-01 1.0437012267885958e-01 8.1944596418592452e-01  5.5452057094729712e-01 1.0588902490548141e-01 8.2569236072079677e-01  5.5507658797916037e-01 1.0666455940903968e-01 8.2880588441426595e-01  5.5563647820993189e-01 1.0745407580740490e-01 8.3192280116164929e-01  5.5620429108959824e-01 1.0826376233942971e-01 8.3506418222613632e-01  5.5677437652789830e-01 1.0908558623344768e-01 8.3819933369383726e-01  5.5734804157059181e-01 1.0992172153503070e-01 8.4133404916889754e-01  5.5792476440610395e-01 1.1077170839386294e-01 8.4446536119530824e-01  5.5850406886851944e-01 1.1163494107423658e-01 8.4759002371866032e-01  5.5908479266739064e-01 1.1250984630132639e-01 8.5070152059604220e-01  5.5966645976389506e-01 1.1339579783649902e-01 8.5379706259793275e-01  5.6025049806138560e-01 1.1429518308579478e-01 8.5688354977622727e-01  5.6083249908822630e-01 1.1520119479441636e-01 8.5993791563184474e-01  5.6141649704466845e-01 1.1612008957446794e-01 8.6298113066483928e-01  5.6199930809514465e-01 1.1704708464717940e-01 8.6599610799800320e-01  5.6258099213765322e-01 1.1798219387743591e-01 8.6898325956527400e-01  5.6316071080727870e-01 1.1892403065639466e-01 8.7193838807872848e-01  5.6373832676714097e-01 1.1987233770488463e-01 8.7486072038245832e-01  5.6431365133552736e-01 1.2082673406286812e-01 8.7774947326494046e-01  5.6488620531714884e-01 1.2178633708467029e-01 8.8060235806758069e-01  5.6545480314868335e-01 1.2274902730615929e-01 8.8341371063749163e-01  5.6602026498608093e-01 1.2371603426193925e-01 8.8618785611958539e-01  5.6657986077228106e-01 1.2468269151859696e-01 8.8891148222679373e-01  5.6713636507615250e-01 1.2565335072520717e-01 8.9159896039991837e-01  5.6768555166753343e-01 1.2662052710853969e-01 8.9423007845339741e-01  5.6822962421264833e-01 1.2758784378922311e-01 8.9681596400982178e-01  5.6876761012311960e-01 1.2855331721423116e-01 8.9935253840884755e-01  5.6929908470361346e-01 1.2951591256757475e-01 9.0183837006545187e-01  5.6982344857769585e-01 1.3047423392333821e-01 9.0427137793266510e-01  5.7033965329069902e-01 1.3142606102060478e-01 9.0664724181633516e-01  5.7084837779556274e-01 1.3237225137773559e-01 9.0897010663928490e-01  5.7134842724506107e-01 1.3331027360260755e-01 9.1123509201985964e-01  5.7183961931504801e-01 1.3423938574795011e-01 9.1344228869275801e-01  5.7232281196049828e-01 1.3516087440638386e-01 9.1559634705307535e-01  5.7279553662296534e-01 1.3606956677900867e-01 9.1768724592070450e-01  5.7325539511262291e-01 1.3696040747647656e-01 9.1970540105219922e-01  5.7370787848590432e-01 1.3784365151311370e-01 9.2167576642183702e-01  5.7415045978767487e-01 1.3871386401760302e-01 9.2358852131033675e-01  5.7457766075450267e-01 1.3955989358816437e-01 9.2542081101936091e-01  5.7499644466619104e-01 1.4039509274857881e-01 9.2720346058989767e-01  5.7540634689132530e-01 1.4121793628556711e-01 9.2893596826641234e-01  5.7579778528433301e-01 1.4200898869443213e-01 9.3057814052199095e-01  5.7617809523847574e-01 1.4278231953924345e-01 9.3216272796466504e-01  5.7654483621357100e-01 1.4353261539586337e-01 9.3368006459282404e-01  5.7689956969117273e-01 1.4426251280543875e-01 9.3513811912335121e-01  5.7723994415340829e-01 1.4496681414582377e-01 9.3652794930133698e-01  5.7756659823549539e-01 1.4564633863141296e-01 9.3785337150841586e-01  5.7787837885501814e-01 1.4629823939255046e-01 9.3911071735959373e-01  5.7817456169449644e-01 1.4692053345932674e-01 9.4029815532681149e-01  5.7845710482528157e-01 1.4751689977167193e-01 9.4142457107664368e-01  5.7872561450753390e-01 1.4808615326837954e-01 9.4248915771030750e-01  5.7897797481558133e-01 1.4862332944848219e-01 9.4348468239331196e-01  5.7921291879679715e-01 1.4912539813102141e-01 9.4440692988116060e-01  5.7943057372195428e-01 1.4959217020979973e-01 9.4525747721674258e-01  5.7963422206878412e-01 1.5003034018881733e-01 9.4604994990886138e-01  5.7982001483448742e-01 1.5043135246631256e-01 9.4676996935059210e-01  5.7999005477654930e-01 1.5079935939552877e-01 9.4742662749627993e-01  5.8027028955266668e-01 1.5140806594004969e-01 9.4850369699791548e-01  5.8040802999798857e-01 1.5170805109886901e-01 9.4903113332978040e-01  5.8049850655133084e-01 1.5190568716185843e-01 9.4937627611536890e-01  5.8058286978096074e-01 1.5209010247649463e-01 9.4969778881651123e-01  5.8065158972760444e-01 1.5224049035920792e-01 9.4995927644321976e-01  5.8070066063158754e-01 1.5234798434512267e-01 9.5014576268576179e-01  5.8073120907279940e-01 1.5241494598742619e-01 9.5026175153629200e-01  5.8074631830550849e-01 1.5244807410779054e-01 9.5031909741464515e-01  5.8074323413855233e-01 1.5244131537583575e-01 9.5030738151044092e-01  5.8073401992984264e-01 1.5242108669224474e-01 9.5027245516694070e-01  5.8069065377652673e-01 1.5232605529485385e-01 9.5010774413603682e-01  5.8063535861210958e-01 1.5220496244320775e-01 9.4989753364434304e-01  5.8056338686716702e-01 1.5204748735842313e-01 9.4962361776945170e-01  5.8047932023406723e-01 1.5186377321072034e-01 9.4930310188334399e-01  5.8037630039523092e-01 1.5163897752972244e-01 9.4890954898749003e-01  5.8025209084075613e-01 1.5136841901652712e-01 9.4843396674944103e-01  5.8011439092852868e-01 1.5106909001890106e-01 9.4790528263345641e-01  5.7996114978421653e-01 1.5073673660698961e-01 9.4731514082035906e-01  5.7979270271925887e-01 1.5037232663969932e-01 9.4666427912729412e-01  5.7960848331392290e-01 1.4997488279244470e-01 9.4594994682657241e-01  5.7940678973008264e-01 1.4954108878760594e-01 9.4516471772683308e-01  5.7918881883216844e-01 1.4907380870269177e-01 9.4431256031117417e-01  5.7895765202637905e-01 1.4857999640185385e-01 9.4340469525861759e-01  5.7871263715563936e-01 1.4805856416942648e-01 9.4243787325679229e-01  5.7845275681768626e-01 1.4750770106045369e-01 9.4140724653100671e-01  5.7817856371799370e-01 1.4692895598729083e-01 9.4031413681428566e-01  5.7789006601574056e-01 1.4632273549123717e-01 9.3915766451705252e-01  5.7758801461965248e-01 1.4569100888396477e-01 9.3793994241791390e-01  5.7727227137975934e-01 1.4503390023399684e-01 9.3665944822932468e-01  5.7694349515142751e-01 1.4435318352769141e-01 9.3531792752675547e-01  5.7660194600530335e-01 1.4364981855081035e-01 9.3391546244809653e-01  5.7624912540191775e-01 1.4292728433168517e-01 9.3245733111177298e-01  5.7588491115760232e-01 1.4218572677662628e-01 9.3094209124891858e-01  5.7550878884603451e-01 1.4142449744809613e-01 9.2936674894595495e-01  5.7511959307998528e-01 1.4064167924810123e-01 9.2772534302496734e-01  5.7471945068411934e-01 1.3984200942588385e-01 9.2602582170042869e-01  5.7430896764978201e-01 1.3902707672536219e-01 9.2426989165486795e-01  5.7388883573013993e-01 1.3819864386689171e-01 9.2245961670408871e-01  5.7345930614198892e-01 1.3735759204686934e-01 9.2059518659170525e-01  5.7302136061241904e-01 1.3650613896350838e-01 9.1868026218714183e-01  5.7256993619368490e-01 1.3563503531621718e-01 9.1669128090929253e-01  5.7211127489633118e-01 1.3475651669101565e-01 9.1465535404719311e-01  5.7164721464046797e-01 1.3387451332451902e-01 9.1257976179626499e-01  5.7117260000589265e-01 1.3297954926859226e-01 9.1044058924528459e-01  5.7068936294473471e-01 1.3207559724200810e-01 9.0824596580021100e-01  5.7019835661970186e-01 1.3116467810536370e-01 9.0599872196018083e-01  5.6970457761274962e-01 1.3025616592285583e-01 9.0372152811577933e-01  5.6919901866039924e-01 1.2933396428230498e-01 9.0137180784215454e-01  5.6868928049144829e-01 1.2841217394016555e-01 8.9898442409802293e-01  5.6817398526405949e-01 1.2748848679565411e-01 8.9655225480550016e-01  5.6765463383032067e-01 1.2656582090362622e-01 8.9408241527776278e-01  5.6712783144896106e-01 1.2563839251370926e-01 8.9155770524726297e-01  5.6659644224470107e-01 1.2471143316436491e-01 8.8899180144681200e-01  5.6606164495253253e-01 1.2378723645165161e-01 8.8638974600887577e-01  5.6552337064376157e-01 1.2286578217564095e-01 8.8375106309304419e-01  5.6498231911927099e-01 1.2194837505147654e-01 8.8107891819256479e-01  5.6388969246865872e-01 1.2012245396783737e-01 8.7562276175574683e-01  5.6334111127566622e-01 1.1921913096438756e-01 8.7285325587788665e-01  5.6279057822321488e-01 1.1832150989674725e-01 8.7005411098452723e-01  5.6223912677874521e-01 1.1743138601465014e-01 8.6723019180665073e-01  5.6168713978072238e-01 1.1654930612497975e-01 8.6438378269574334e-01  5.6113478032656394e-01 1.1567553968201118e-01 8.6151570657702559e-01  5.6058285759973248e-01 1.1481130387935923e-01 8.5863038974801842e-01  5.6003168360782707e-01 1.1395703924316510e-01 8.5572956677790990e-01  5.5948173983275018e-01 1.1311338419201747e-01 8.5281610465339508e-01  5.5893355935811329e-01 1.1228105891960222e-01 8.4989304928826193e-01  5.5838781504298374e-01 1.1146092400313302e-01 8.4696450157391645e-01  5.5784538126277794e-01 1.1065414672636970e-01 8.4403533116174778e-01  5.5730562265392292e-01 1.0985960674671913e-01 8.4110269929212733e-01  5.5676864392747549e-01 1.0907724971776742e-01 8.3816764299077939e-01  5.5623791590754079e-01 1.0831190280932967e-01 8.3524963188011947e-01  5.5570827214830898e-01 1.0755597480365957e-01 8.3232071425648402e-01  5.5518328752379065e-01 1.0681429783450140e-01 8.2940124596000364e-01  5.5466737065440497e-01 1.0609291138925905e-01 8.2651605272879303e-01  5.5415568902880319e-01 1.0538461508270855e-01 8.2363944951777102e-01  5.5365023626849319e-01 1.0469195984401068e-01 8.2078273289123194e-01  5.5315077237438381e-01 1.0401434794501255e-01 8.1794547129792827e-01  5.5265847001758095e-01 1.0335305523721107e-01 8.1513492471816673e-01  5.5217266411645183e-01 1.0270688656475790e-01 8.1234795195919485e-01  5.5169363513802205e-01 1.0207594363494817e-01 8.0958685179426448e-01  5.5122449100795468e-01 1.0146394327897293e-01 8.0687031443483515e-01  5.5076305832562700e-01 1.0086775512942622e-01 8.0418643639626353e-01  5.5030804070391715e-01 1.0028529846607456e-01 8.0152858166279961e-01  5.4986539729866579e-01 9.9723976079542073e-02 7.9893201531616254e-01  5.4942894567267209e-01 9.9175532885449474e-02 7.9636144997605041e-01  5.4900204922457030e-01 9.8643930938925997e-02 7.9383716196829934e-01  5.4858531612523553e-01 9.8129548748672496e-02 7.9136364901837319e-01  5.4817809037800591e-01 9.7631265272620962e-02 7.8893764873869321e-01  5.4778082160690256e-01 9.7149301514177819e-02 7.8656255123248719e-01  5.4739252327216981e-01 9.6682157238345653e-02 7.8423310641073374e-01  5.4701203231028173e-01 9.6228162922360805e-02 7.8194290392809707e-01  5.4664603458803263e-01 9.5794943683531114e-02 7.7973292187039045e-01  5.4629136108834053e-01 9.5378402257204634e-02 7.7758475873272603e-01  5.4594069899090270e-01 9.4969723302166034e-02 7.7545458046663973e-01  5.4560382991366507e-01 9.4580038205492017e-02 7.7340237696753278e-01  5.4527983576418881e-01 9.4207962936578543e-02 7.7142323423417902e-01  5.4496428791814155e-01 9.3848129021921453e-02 7.6949064544638202e-01  5.4466010755208139e-01 9.3503622391394703e-02 7.6762298923385419e-01  5.4436435804523742e-01 9.3170888364355026e-02 7.6580275487736871e-01  5.4408355869247926e-01 9.2856999609697413e-02 7.6407051446399943e-01  5.4381027341119970e-01 9.2553398903418974e-02 7.6238098045466307e-01  5.4354914501236928e-01 9.2265020567073072e-02 7.6076324318170307e-01  5.4329751863522613e-01 9.1988765577308299e-02 7.5920117244726715e-01  5.4305444187773566e-01 9.1723379941404268e-02 7.5768930156280834e-01  5.4282618143724293e-01 9.1475479465634973e-02 7.5626711457433904e-01  5.4260946153482226e-01 9.1241320364316245e-02 7.5491446769976323e-01  5.4239890536951374e-01 9.1014913652250687e-02 7.5359818754338903e-01  5.4220180313310129e-01 9.0803970713658727e-02 7.5236410338298632e-01  5.4201715753159319e-01 9.0607213772777223e-02 7.5120640184344778e-01  5.4184185156098352e-01 9.0421199676842839e-02 7.5010571459280784e-01  5.4167655239064338e-01 9.0246465946064419e-02 7.4906661067144265e-01  5.4152435016947742e-01 9.0086189329126085e-02 7.4810865640731861e-01  5.4455540318837470e-01 9.3385600803491245e-02 7.6697908187850039e-01  5.7193349956731854e-01 1.3441785446548374e-01 9.1386205647243646e-01  5.4291509415598305e-01 9.1571865173363784e-02 7.5682160594346271e-01  5.6470460428107339e-01 1.2148089840646936e-01 8.7969975751045959e-01  5.4150975775937327e-01 9.0070856051771717e-02 7.4801683656789664e-01  5.7668178624640976e-01 1.4381394998199165e-01 9.3424410178979844e-01  5.4733971772752699e-01 9.6618963032430782e-02 7.8391592907982466e-01  5.5426629073053768e-01 1.0553657548463204e-01 8.2426395073941927e-01  5.8015745320221923e-01 1.5116259571758781e-01 9.4807096070081986e-01  5.7057960643328753e-01 1.3187140438560441e-01 9.0774510587930013e-01  5.4763270931381991e-01 9.6970703226978039e-02 7.8567489108738986e-01  5.7638746873966884e-01 1.4321015385969796e-01 9.3303016103429415e-01  5.7305118977553449e-01 1.3656402644692278e-01 9.1881109666404526e-01  5.5010332320163924e-01 1.0002506432482386e-01 8.0032905873330895e-01  5.6685693276183768e-01 1.2516478036399756e-01 8.9025225935735297e-01  5.4163650647022610e-01 9.0204250049300341e-02 7.4881475617035764e-01  5.7855359054480826e-01 1.4772118553151278e-01 9.4180778790446174e-01  5.7999192328421656e-01 1.5080343989438119e-01 9.4743382778527896e-01  5.4081934400206511e-01 8.9351035333787604e-02 7.4365778271437877e-01  5.5339076930505693e-01 1.0433920015074553e-01 8.1931043408170678e-01  5.6346372580584347e-01 1.1942032662369403e-01 8.7347410652772706e-01  5.5705300062157692e-01 1.0949032109695699e-01 8.3972462913862933e-01  5.4062880620327169e-01 8.9154477481820052e-02 7.4245081765869259e-01  5.8060327409775758e-01 1.5213471732305670e-01 9.4977561702237745e-01  5.6002979911412654e-01 1.1395416221234270e-01 8.5571981909409789e-01  5.5976580049097635e-01 1.1354810771873543e-01 8.5432334359710815e-01  5.4068968424184449e-01 8.9217208991969638e-02 7.4283658809095965e-01  5.4299163500100933e-01 9.1655011694034880e-02 7.5729838302811048e-01  5.6892817810919005e-01 1.2884330294582932e-01 9.0010535769802991e-01  5.7854486906708125e-01 1.4770273200528589e-01 9.4177316760642982e-01  5.5008958207568115e-01 1.0000764107245899e-01 8.0024869114331176e-01  5.4460548578985002e-01 9.3442060681738756e-02 7.6728723209366534e-01  5.8067528693298298e-01 1.5229241580390809e-01 9.5004938312103970e-01  5.5769002401080736e-01 1.1042467909877643e-01 8.4319319030099793e-01  5.6196598556344357e-01 1.1699381068376062e-01 8.6582416953519792e-01  5.4093623322032736e-01 8.9472144977509063e-02 7.4439720716194235e-01  5.7474541189835904e-01 1.3989388780749620e-01 9.2613626163817508e-01  5.7406996609036032e-01 1.3855513801778424e-01 9.2324167298746540e-01  5.4216104137102872e-01 9.0760477530001812e-02 7.5210873548990187e-01  5.4582601626553517e-01 9.4836633881552890e-02 7.7475686446090286e-01  5.6679428638050577e-01 1.2505551085644209e-01 8.8994954646267321e-01  5.7946751948493447e-01 1.4967158028531985e-01 9.4540153953426909e-01  5.5205944915043326e-01 1.0255735436690956e-01 8.1169657307255350e-01  5.4122927493508854e-01 8.9777055921976004e-02 7.4624859216301254e-01  5.4867127878548172e-01 9.8235314363757112e-02 7.9187486859834888e-01  5.8050559371885968e-01 1.5192119993925710e-01 9.4940333471394056e-01  5.7767681586998876e-01 1.4587644473306441e-01 9.3829873688831611e-01  5.5594848170497257e-01 1.0789767052666935e-01 8.3365184967389883e-01  5.6904001794708847e-01 1.2904570252151346e-01 9.0062895817141031e-01  5.4372581456455049e-01 9.2459999538378232e-02 7.6185806005064338e-01  5.4373745910068627e-01 9.2472757786576237e-02 7.6193050824244823e-01  5.5146616436491969e-01 1.0177844140544383e-01 8.0827136078529316e-01  5.7925059462346629e-01 1.4920612330452965e-01 9.4455442769519393e-01  5.5491041387292039e-01 1.0643174373149644e-01 8.2787746802651763e-01  5.7042349627228395e-01 1.3158157564000461e-01 9.0703097869467364e-01  5.4573615745286996e-01 9.4732797932237905e-02 7.7420937895925357e-01  5.4883075825