<?xml version="1.0"?>
<VTKFile type="UnstructuredGrid"  version="0.1"  >
<UnstructuredGrid>
<Piece  NumberOfPoints="4940" NumberOfCells="9650">
<Points>
<DataArray  type="Float64"  NumberOfComponents="3"  format="ascii">500 250 0  0 250 0  250 500 0  250 0 0  256.8885856082646 499.9050767557906 0  263.7719401218049 499.6203791065173 0  270.6448364229772 499.1461232471188 0  277.5020553257866 498.4826693209355 0  284.3383895508592 497.6305211460281 0  291.1486476865662 496.5903258312597 0  297.9276581259182 495.3628732847843 0  304.6702729675493 493.9490956196674 0  311.3713719748657 492.3500664368026 0  318.0258664141369 490.5670000199653 0  324.6287029687753 488.6012504015818 0  331.1748675330201 486.4543103455647 0  337.6593890460416 484.1278102064655 0  344.0773432429536 481.6235166997244 0  350.4238564271474 478.9433315480048 0  356.694109139292 476.0892900492477 0  362.88333985546 473.0635595140469 0  368.9868485575419 469.8684376402048 0  375.0000003153078 466.5063507640667 0  380.9182288257928 462.9798520074548 0  386.7370398729688 459.2916193419558 0  392.4520147244077 455.444453565817 0  398.0588135356345 451.4412761437442 0  403.5531785622926 447.285127045646 0  408.9309374414144 442.9791624087773 0  414.1880064015299 438.5266521049243 0  419.3203932989752 433.9309773069245 0  424.324200661095 429.1956279150535 0  429.1956286596235 424.3241998957182 0  433.9309780058756 419.3203925397119 0  438.5266527445345 414.1880056671062 0  442.9791630130591 408.9309367076756 0  447.2851276060475 403.5531778422888 0  451.4412766621026 398.0588128303826 0  455.4444540361634 392.4520140460735 0  459.2916197786263 386.7370392045948 0  462.9798524073514 380.9182281752347 0  466.5063511234856 374.9999996927758 0  469.8684379657123 368.9868479560565 0  473.0635598144817 362.8833392617846 0  476.0892903190255 356.6941085676214 0  478.9433317963513 350.4238558609745 0  481.6235169154735 344.0773427117675 0  484.12781039012 337.6593885555221 0  486.4543105028062 331.1748670749914 0  488.601250531677 324.6287025528375 0  490.5670001317469 318.0258660188321 0  492.3500665291326 311.3713716102628 0  493.949095695951 304.6702726271575 0  495.3628733416623 297.9276578347343 0  496.5903258712341 291.1486474470129 0  497.6305211749058 284.3383893426084 0  498.4826693388848 277.502055163614 0  499.1461232580606 270.6448362909296 0  499.6203791109319 263.7719400417897 0  499.9050767571306 256.8885855596534 0  499.9050767559877 243.1114143988867 0  499.6203791069493 236.2280598860241 0  499.1461232485393 229.3551635941651 0  498.4826693235677 222.4979446979962 0  497.6305211491849 215.6616104719064 0  496.5903258357701 208.8513523404629 0  495.3628732906988 202.0723419043604 0  493.9490956264813 195.3297270628552 0  492.3500664487791 188.6286280724281 0  490.5670000344809 181.9741336371959 0  488.6012504175981 175.3712970824318 0  486.4543103623226 168.8251325157939 0  484.1278102222298 162.3406109960628 0  481.6235167152198 155.9226567951971 0  478.9433315621651 149.5761436051346 0  476.0892900516498 143.3058908657982 0  473.063559513628 137.1166601437124 0  469.8684376406648 131.0131514433083 0  466.5063507675389 124.9999996907064 0  462.9798520124137 119.0817711822745 0  459.2916193464549 113.2629601339176 0  455.4444535642773 107.5479852733717 0  451.4412761528674 101.9411864767781 0  447.2851270583545 96.44682145403524 0  442.9791624165781 91.06906256805769 0  438.5266521117469 85.81199360630404 0  433.9309773156125 80.67960671046254 0  429.1956279150353 75.67579933888632 0  424.3241998888952 70.80437133373906 0  419.3203925223282 66.06902197812161 0  414.1880056411937 61.47334723289828 0  408.9309366751728 57.0208369601728 0  403.5531778009394 52.71487236176898 0  398.058812796452 48.55872331295853 0  392.4520140187753 44.55554594490843 0  386.7370391799677 40.70838020528396 0  380.9182281475119 37.02014757560744 0  374.9999996718656 33.49364886444181 0  368.9868479340393 30.13156202237255 0  362.8833392380029 26.93644017348339 0  356.6941085456942 23.91070967062674 0  350.4238558420009 21.0566681953261 0  344.0773426899492 18.37648307566465 0  337.6593885328982 15.87218960140942 0  331.1748670549786 13.54568949032341 0  324.6287025315056 11.39874946165088 0  318.0258660010876 9.432999863235466 0  311.3713716017894 7.649933468721599 0  304.6702726190621 6.050904302234756 0  297.9276578269805 4.637126656823085 0  291.148647441857 3.409674127905504 0  284.3383893425031 2.369478825079682 0  277.502055159398 1.517330660648639 0  270.6448362875833 0.853876741662134 0  263.7719400401456 0.3796208889774277 0  256.8885855592052 0.09492324285704967 0  243.1114143979462 0.09492324403817065 0  236.2280598850882 0.3796208931023841 0  229.3551635938215 0.8538767514891958 0  222.4979446968584 1.517330676558146 0  215.6616104703111 2.369478851036291 0  208.8513523382973 3.409674164591252 0  202.0723419066374 4.637126708856528 0  195.3297270659513 6.050904372824903 0  188.628628074828 7.649933550613184 0  181.9741336377093 9.432999965373938 0  175.3712970793675 11.39874958336037 0  168.8251325057572 13.54568964112298 0  162.340610986655 15.87218978129263 0  155.9226567874317 18.37648328793418 0  149.576143602509 21.05666843898663 0  143.3058908718157 23.91070994551046 0  137.1166601505524 26.93644048291054 0  131.0131514451933 30.13156235831508 0  124.9999996848412 33.49364923584736 0  119.0817711715717 37.0201479941652 0  113.2629601211624 40.70838066187849 0  107.5479852622251 44.55554644345162 0  101.9411864693332 48.55872385260452 0  96.44682143286516 52.71487295812284 0  91.06906254351222 57.02083760363669 0  85.81199358272519 61.4733479087879 0  80.67960667988106 66.06902271253972 0  75.67579930062769 70.80437212218331 0  70.80437129287643 75.67580015310926 0  66.06902193673014 80.67960752263491 0  61.47334718684866 85.81199441168215 0  57.02083692524275 91.0690633672404 0  52.71487232786438 96.44682224262129 0  48.55872328070024 101.941187247437 0  44.55554591578033 107.5479860232332 0  40.7083801742321 113.2629608675606 0  37.02014754791168 119.0817718975441 0  33.49364883372994 125.000000381329 0  30.13156199866361 131.0131521097709 0  26.9364401549829 137.1166607985551 0  23.91070965524918 143.3058914868915 0  21.05666818346614 149.576144185037 0  18.37648306853811 155.9226573275967 0  15.8721895918909 162.3406114925245 0  13.54568948170046 168.8251329701392 0  11.39874945301878 175.3712974960928 0  9.432999857087736 181.9741340206533 0  7.649933466342702 188.6286284076045 0  6.050904301250966 195.3297273853278 0  4.637126656808988 202.0723421730917 0  3.409674127767772 208.8513525589684 0  2.369478824521138 215.6616106615248 0  1.517330660909465 222.4979448382452 0  0.8538767414496533 229.355163714981 0  0.3796208887135322 236.2280599646376 0  0.09492324266324204 243.1114144478261 0  0.0949232442452228 256.8885856095658 0  0.3796208935834784 263.7719401236316 0  0.8538767530323526 270.6448364248016 0  1.517330679476544 277.5020553295092 0  2.369478854618649 284.3383895555228 0  3.409674170191892 291.1486476952655 0  4.6371267162381 297.9276581311522 0  6.050904381420935 304.6702729724059 0  7.649933562385399 311.3713719716595 0  9.43299997979841 318.0258664133013 0  11.3987495994252 324.6287029719946 0  13.54568965885832 331.174867545904 0  15.87218979367188 337.6593890464085 0  18.37648329843151 344.0773432384132 0  21.05666844777872 350.423856417535 0  23.91070995156048 356.6941091410045 0  26.93644048988043 362.8833398632205 0  30.13156235982007 368.9868485575877 0  33.49364924138357 375.0000003247478 0  37.0201480006036 380.9182288389023 0  40.70838066758398 386.7370398875706 0  44.55554644477201 392.4520147396792 0  48.55872386086904 398.0588135419111 0  52.71487295981296 403.5531785693063 0  57.02083760525949 408.9309374584583 0  61.47334790862246 414.1880064170849 0  66.06902271205095 419.320393319588 0  70.80437211216579 424.3242006890749 0  75.67580013809859 429.195628692521 0  80.6796075127923 433.930978054209 0  85.81199439754931 438.5266528008431 0  91.06906334717917 442.9791630582355 0  96.44682221438322 447.2851276501571 0  101.9411872243843 451.441276702356 0  107.5479859945825 455.4444540643537 0  113.2629608446994 459.2916198108319 0  119.0817718768376 462.9798524393601 0  125.0000003647644 466.5063511567065 0  131.0131521012763 469.8684379967393 0  137.1166607840049 473.0635598376539 0  143.3058914748804 476.0892903390826 0  149.5761441732679 478.9433318113714 0  155.9226573130112 481.6235169255377 0  162.3406114779862 484.1278104026658 0  168.8251329570439 486.4543105138039 0  175.3712974805475 488.601250542119 0  181.9741340135204 490.5670001408953 0  188.6286284005059 492.3500665318597 0  195.3297273788229 493.9490956972913 0  202.0723421640089 495.3628733414168 0  208.8513525529672 496.5903258712308 0  215.6616106544547 497.6305211744985 0  222.4979448327038 498.4826693384772 0  229.3551637102845 499.1461232581612 0  236.2280599621369 499.6203791111485 0  243.1114144470173 499.9050767573145 0  155.2373389820306 474.8197567317462 0  25.36256300907667 153.9152755065208 0  432.3709625126712 412.6214396304305 0  6.013151705810699 246.637913163471 0  246.6379131630491 493.986848294322 0  338.6995838441862 22.68244767887072 0  477.3175523131281 338.6995838660569 0  493.9868482700757 246.6379131399102 0  246.6201155078769 6.218451882810491 0  417.6179310263282 72.7156044707053 0  102.2232990934413 445.0100869616822 0  63.66330858966404 92.20354579482142 0  391.3105220491464 50.73522820883105 0  72.79295043967942 418.0702734974704 0  448.290574428537 108.25674339002 0  402.4604651193511 440.7462829841712 0  97.55317348421397 59.11376320116034 0  136.7376477664901 33.58246472647134 0  363.3288394375288 465.6947312928271 0  44.0678766556007 381.0860953771871 0  469.6905266180034 142.3890690100806 0  22.68244791668644 338.6995843487432 0  338.699584349159 477.317552078365 0  173.389488083762 18.6681884918202 0  483.4809734778481 179.7121987795732 0  13.50237455842738 306.4709525540879 0  305.9825168523021 487.24416992
[...]
<PointData  Vectors="f_12"> 
<DataArray  type="Float64"  Name="f_12"  NumberOfComponents="3" format="ascii">4.6762685754767419e-01 8.1641473029888292e-02 2.2462572531221645e-01  4.7104133364247208e-01 7.6671891102429252e-02 2.4903407730665478e-01  4.6400552393456118e-01 8.9126316033252440e-02 1.9847638321517930e-01  4.7697706823225350e-01 7.0958715897538757e-02 2.9149964921858523e-01  4.6397013589739378e-01 8.9215174892527643e-02 1.9821788036841087e-01  4.6393873833798988e-01 8.9294338552602381e-02 1.9798845493879655e-01  4.6390940583927193e-01 8.9368558024956787e-02 1.9777405937170953e-01  4.6388366741485559e-01 8.9433890871296440e-02 1.9758588675114885e-01  4.6386085800357019e-01 8.9491962733455693e-02 1.9741908783070108e-01  4.6384109696712805e-01 8.9542395656731236e-02 1.9727455381478401e-01  4.6382438211198823e-01 8.9585146803166996e-02 1.9715227822279771e-01  4.6381057606089920e-01 8.9620522794790131e-02 1.9705126676006651e-01  4.6379986165322135e-01 8.9648015020501889e-02 1.9697286685406060e-01  4.6379241168185564e-01 8.9667153227447560e-02 1.9691834815639236e-01  4.6378938615607646e-01 8.9674938034518661e-02 1.9689620458758916e-01  4.6378699437629400e-01 8.9681078378325785e-02 1.9687870206753486e-01  4.6379126445213720e-01 8.9670108187487732e-02 1.9690995090941477e-01  4.6379674856117820e-01 8.9656014232135997e-02 1.9695008485751736e-01  4.6380603434908574e-01 8.9632175910299025e-02 1.9701803407671037e-01  4.6381850347300146e-01 8.9600204704590694e-02 1.9710926831102285e-01  4.6383400864428093e-01 8.9560508765001073e-02 1.9722270431006581e-01  4.6385416526117756e-01 8.9509033309318919e-02 1.9737013958734870e-01  4.6387792981868026e-01 8.9448493300861395e-02 1.9754393052771077e-01  4.6390394028558368e-01 8.9382418098221894e-02 1.9773410468721811e-01  4.6393371723550419e-01 8.9307024000962631e-02 1.9795175996930861e-01  4.6396795598887947e-01 8.9220678103328094e-02 1.9820195083652614e-01  4.6400677683830810e-01 8.9123187783731059e-02 1.9848553242277522e-01  4.6404784571634461e-01 8.9020528550712200e-02 1.9878542884274789e-01  4.6409263893320202e-01 8.8909128282208802e-02 1.9911239505917416e-01  4.6414262118864563e-01 8.8785506446251244e-02 1.9947708843492776e-01  4.6419537349673712e-01 8.8655816967836198e-02 1.9986181951204590e-01  4.6425242431421437e-01 8.8516455713350053e-02 2.0027770806683864e-01  4.6431342966310291e-01 8.8368442959067400e-02 2.0072220359038090e-01  4.6437769663533957e-01 8.8213632841698308e-02 2.0119022726645608e-01  4.6444725035438755e-01 8.8047371652229506e-02 2.0169648266828152e-01  4.6452037457141915e-01 8.7874001710445918e-02 2.0222842211481618e-01  4.6459646530263232e-01 8.7695113460006899e-02 2.0278163000688570e-01  4.6467761694501836e-01 8.7506019815290992e-02 2.0337128789946321e-01  4.6476380034182246e-01 8.7307099972470742e-02 2.0399712139244705e-01  4.6485306374632440e-01 8.7103071563285131e-02 2.0464492293919534e-01  4.6494543976894542e-01 8.6894061263854641e-02 2.0531489410311582e-01  4.6504275883500418e-01 8.6676181476044598e-02 2.0602026632678561e-01  4.6514475864752153e-01 8.6450283614588785e-02 2.0675910083569721e-01  4.6525017428808219e-01 8.6219495044043748e-02 2.0752217236583381e-01  4.6535996001429591e-01 8.5981933438039171e-02 2.0831636907628059e-01  4.6547367506421228e-01 8.5738830058123244e-02 2.0913845418345275e-01  4.6559114181814287e-01 8.5490794581978335e-02 2.0998712337173200e-01  4.6571216370726409e-01 8.5238515091128189e-02 2.1086090354122355e-01  4.6583836515451327e-01 8.4978905888548978e-02 2.1177150404394096e-01  4.6596765634272302e-01 8.4716445896079060e-02 2.1270382075015276e-01  4.6610084011936137e-01 8.4449865858089279e-02 2.1366359300590870e-01  4.6623753209537599e-01 8.4180005471823346e-02 2.1464807636526723e-01  4.6637792308827031e-01 8.3906868133225440e-02 2.1565857244193085e-01  4.6652239849936372e-01 8.3629849161518013e-02 2.1669787886939912e-01  4.6667014127598871e-01 8.3350767385273666e-02 2.1776009327299084e-01  4.6682098317557319e-01 8.3070173873504502e-02 2.1884397954437040e-01  4.6697561594750725e-01 8.2786881810713198e-02 2.1995454579402271e-01  4.6713340421168642e-01 8.2502380451691934e-02 2.2108715963530137e-01  4.6729397451945698e-01 8.2217302201274406e-02 2.2223924818722388e-01  4.6745646047509454e-01 8.1933022313297632e-02 2.2340455827904768e-01  4.6779547269096672e-01 8.1355822348185003e-02 2.2583410046501851e-01  4.6796774965119775e-01 8.1069550206202171e-02 2.2706797971820858e-01  4.6814252330130335e-01 8.0783989042301121e-02 2.2831927612327421e-01  4.6832050324002256e-01 8.0497954508324782e-02 2.2959316202564700e-01  4.6850046958978436e-01 8.0213860048013522e-02 2.3088073550035165e-01  4.6868263467123611e-01 7.9930940304003384e-02 2.3218376958006393e-01  4.6886708376062525e-01 7.9649647854978689e-02 2.3350268742149893e-01  4.6905349719129091e-01 7.9370172860963525e-02 2.3483537175024349e-01  4.6924162072885522e-01 7.9093089609111988e-02 2.3617995718452081e-01  4.6943133677355170e-01 7.8818566930663705e-02 2.3753564360205257e-01  4.6962301017800939e-01 7.8546026345740011e-02 2.3890511444604923e-01  4.6981532994092240e-01 7.8277482595180914e-02 2.4027894447271531e-01  4.7000957656276676e-01 7.8010938139352004e-02 2.4166638647918359e-01  4.7020467219657408e-01 7.7748010602710763e-02 2.4305973733337269e-01  4.7040067048004330e-01 7.7488531496670482e-02 2.4445941968574614e-01  4.7059730871640232e-01 7.7232848357599845e-02 2.4586356649774474e-01  4.7079450682707941e-01 7.6980954389213846e-02 2.4727166043919410e-01  4.7099221543967296e-01 7.6732891125164057e-02 2.4868336128030602e-01  4.7119026892077764e-01 7.6488783760142218e-02 2.5009751767359772e-01  4.7138824053487938e-01 7.6249081737003330e-02 2.5151110145186745e-01  4.7158624861778708e-01 7.6013498981718830e-02 2.5292500496606796e-01  4.7178364268389184e-01 7.5782868079162111e-02 2.5433457262290476e-01  4.7198110427032747e-01 7.5556137081666086e-02 2.5574471080201561e-01  4.7217725889339429e-01 7.5334803772530823e-02 2.5714562669926866e-01  4.7237280303843149e-01 7.5117975158276451e-02 2.5854230543570650e-01  4.7256734489208074e-01 7.4905961377146849e-02 2.5993196503992100e-01  4.7276068589055326e-01 7.4698830237157399e-02 2.6131321286453751e-01  4.7295257814870728e-01 7.4496742649724418e-02 2.6268426965203728e-01  4.7314266767257152e-01 7.4299865108705301e-02 2.6404264973850622e-01  4.7333108996006024e-01 7.4107978198878585e-02 2.6538928879527901e-01  4.7351737819144646e-01 7.3921351991311932e-02 2.6672089190205667e-01  4.7370140789927001e-01 7.3739966048081459e-02 2.6803656161126499e-01  4.7388331097392478e-01 7.3563574047457531e-02 2.6933723116592684e-01  4.7406242694361328e-01 7.3392591314892980e-02 2.7061819950622373e-01  4.7423781987537261e-01 7.3227750402832484e-02 2.7187276542412359e-01  4.7441096260550214e-01 7.3067524045486235e-02 2.7311145361437006e-01  4.7458118550865963e-01 7.2912345407388099e-02 2.7432946455831497e-01  4.7474667460772113e-01 7.2763696470577705e-02 2.7551382965533050e-01  4.7490935126034034e-01 7.2619677856851181e-02 2.7667829125710230e-01  4.7506918915012070e-01 7.2480156384765834e-02 2.7782261402853942e-01  4.7522308582606654e-01 7.2347650095495764e-02 2.7892464329483435e-01  4.7537301179773578e-01 7.2220350717597998e-02 2.7999838906019081e-01  4.7551827697673210e-01 7.2098532653847025e-02 2.8103899037689345e-01  4.7565931834596409e-01 7.1981779995923728e-02 2.8204948354843085e-01  4.7579523137620183e-01 7.1870629272243705e-02 2.8302341809144577e-01  4.7592612629467718e-01 7.1764849151149057e-02 2.8396154810460927e-01  4.7605159140638958e-01 7.1664598107840982e-02 2.8486091499358235e-01  4.7617131452508810e-01 7.1569968433934664e-02 2.8571926100863326e-01  4.7628577050182469e-01 7.1480449257274536e-02 2.8653996530495263e-01  4.7639477228376081e-01 7.1396030064450500e-02 2.8732168673528113e-01  4.7649767288014461e-01 7.1317076128613030e-02 2.8805975351339003e-01  4.7659387046607787e-01 7.1243931823363763e-02 2.8874983436429175e-01  4.7668336168831932e-01 7.1176446365399285e-02 2.8939188883729339e-01  4.7676706998499652e-01 7.1113811688345269e-02 2.8999252144372872e-01  4.7684378415911982e-01 7.1056817361861507e-02 2.9054303816965699e-01  4.7691410276729190e-01 7.1004922337387255e-02 2.9104770171564043e-01  4.7703106234622983e-01 7.0919351028858935e-02 2.9188721138970991e-01  4.7708678589549591e-01 7.0878806745915235e-02 2.9228724363242337e-01  4.7712569018371559e-01 7.0850710366371514e-02 2.9256654780521590e-01  4.7716097199901514e-01 7.0825285586727807e-02 2.9281985433779534e-01  4.7718964468500741e-01 7.0804675569798609e-02 2.9302572109824820e-01  4.7721035960111102e-01 7.0789825387979663e-02 2.9317445526748215e-01  4.7722357631087281e-01 7.0780361400481120e-02 2.9326935641973439e-01  4.7723012392956010e-01 7.0775677596469119e-02 2.9331637062108051e-01  4.7722921132359680e-01 7.0776330690894798e-02 2.9330981798884026e-01  4.7722449870410200e-01 7.0779697515468976e-02 2.9327597780705572e-01  4.7720741143398931e-01 7.0791935207730750e-02 2.9315328725776219e-01  4.7718478576555801e-01 7.0808166035263770e-02 2.9299083445333129e-01  4.7715520899836927e-01 7.0829436800246309e-02 2.9277847508553334e-01  4.7712016589244027e-01 7.0854700962889400e-02 2.9252688482069172e-01  4.7707748605556671e-01 7.0885583903833205e-02 2.9222048309021686e-01  4.7702657498336432e-01 7.0922581953973718e-02 2.9185501067280989e-01  4.7696980973853120e-01 7.0964034608804377e-02 2.9144754338713547e-01  4.7690667350615745e-01 7.1010384262974152e-02 2.9099438428804703e-01  4.7683730285427306e-01 7.1061613880176136e-02 2.9049652432068568e-01  4.7676157177983941e-01 7.1117903989779921e-02 2.8995307116958552e-01  4.7667897451818958e-01 7.1179746150038636e-02 2.8936040959995563e-01  4.7659004472036137e-01 7.1246835063699332e-02 2.8872238463851840e-01  4.7649574975180986e-01 7.1318551172787417e-02 2.8804595558249052e-01  4.7639596607611506e-01 7.1395105108118112e-02 2.8733024506612709e-01  4.7629046779971979e-01 7.1476784979579835e-02 2.8657365183558570e-01  4.7617949088534689e-01 7.1563540726151606e-02 2.8577788187745151e-01  4.7606313376104969e-01 7.1655423343734356e-02 2.8494366027721801e-01  4.7594169796405938e-01 7.1752336253502830e-02 2.8407316147588124e-01  4.7581523219072785e-01 7.1854378694289470e-02 2.8316675287662879e-01  4.7568403775631468e-01 7.1961451720831238e-02 2.8222660776780539e-01  4.7554827739027894e-01 7.2073567025216695e-02 2.8125390876181727e-01  4.7540849665218315e-01 7.2190425580934262e-02 2.8025256993208064e-01  4.7526475239084942e-01 7.2312097382052340e-02 2.7922302829307033e-01  4.7511682393663390e-01 7.2438948890511209e-02 2.7816369454081297e-01  4.7496468070106490e-01 7.2571137865129032e-02 2.7707437992672695e-01  4.7480893395247270e-01 7.2708315319600703e-02 2.7595945997485966e-01  4.7464990431181392e-01 7.2850335353832826e-02 2.7482124305969452e-01  4.7448787032268214e-01 7.2997102747010448e-02 2.7366172373162673e-01  4.7432294373284301e-01 7.3148642642866232e-02 2.7248172218090000e-01  4.7415551312895365e-01 7.3304758239302714e-02 2.7128400212565101e-01  4.7398412686304081e-01 7.3466984536595406e-02 2.7005820272379882e-01  4.7381085360932967e-01 7.3633458520674169e-02 2.6881911293804989e-01  4.7363613914672970e-01 7.3803954564765462e-02 2.6756990411446518e-01  4.7345861913226284e-01 7.3979853960245479e-02 2.6630085853000557e-01  4.7327898532630525e-01 7.4160694666874069e-02 2.6501687684799219e-01  4.7309746796789287e-01 7.4346355450275056e-02 2.6371962882052696e-01  4.7291559776497505e-01 7.4535358558606574e-02 2.6242003250159573e-01  4.7273097529001268e-01 7.4730382192537054e-02 2.6110094767253533e-01  4.7254564358172330e-01 7.4929433864155376e-02 2.5977691949312143e-01  4.7235944941327696e-01 7.5132567979120254e-02 2.5844694695311776e-01  4.7217272895033519e-01 7.5339870513063872e-02 2.5711325468350471e-01  4.7198459790990321e-01 7.5552098676086435e-02 2.5576967149267454e-01  4.7179604983363821e-01 7.5768464661031029e-02 2.5442316363050443e-01  4.7160738185973128e-01 7.5988613014686235e-02 2.5307590312310607e-01  4.7141862307296423e-01 7.6212631396032710e-02 2.5172804696974221e-01  4.7123005394564693e-01 7.6440209307896745e-02 2.5038159919688419e-01  4.7085277624122340e-01 7.6907344321812177e-02 2.4768771577627532e-01  4.7066510780969323e-01 7.7145664268129757e-02 2.4634770090305286e-01  4.7047794950686855e-01 7.7387457913589572e-02 2.4501125182705663e-01  4.7029162566675442e-01 7.7632263501755269e-02 2.4368071090481211e-01  4.7010627711685393e-01 7.7879971195876904e-02 2.4235702597600547e-01  4.6992193899449786e-01 7.8130523691137724e-02 2.4104044410118089e-01  4.6973889159943261e-01 7.8383572206079402e-02 2.3973292794746667e-01  4.6955719526094281e-01 7.8639005646918003e-02 2.3843489905153861e-01  4.6937701459671216e-01 7.8896607076447245e-02 2.3714749375721528e-01  4.6919849499358129e-01 7.9156107011343652e-02 2.3587175125402940e-01  4.6902186523207573e-01 7.9417212471482007e-02 2.3460924337783848e-01  4.6884723044150939e-01 7.9679600861198630e-02 2.3336075646858087e-01  4.6867462159024048e-01 7.9943277684471709e-02 2.3212644227127771e-01  4.6850387298434215e-01 8.0208389142681996e-02 2.3090511557703908e-01  4.6833601976071232e-01 8.0473208144567751e-02 2.2970417608225080e-01  4.6816974036051756e-01 8.0739838060521277e-02 2.2851412375239830e-01  4.6800579557721361e-01 8.1006920115290981e-02 2.2734040100738601e-01  4.6784531503990295e-01 8.1272435761081355e-02 2.2619112614105394e-01  4.6768723421782021e-01 8.1538204209563647e-02 2.2505856116251721e-01  4.6753182939037824e-01 8.1803363825640935e-02 2.2394481056190743e-01  4.6737913234328393e-01 8.2067982041848675e-02 2.2284998832872513e-01  4.6722945047178793e-01 8.2331263769598054e-02 2.2177634523419326e-01  4.6708252686969182e-01 8.2593514401181276e-02 2.2072203611410005e-01  4.6693849001547200e-01 8.2854420745380228e-02 2.1968795797319218e-01  4.6679789360696111e-01 8.3112743253136501e-02 2.1867811686648875e-01  4.6666044332404305e-01 8.3368890349500416e-02 2.1769038869152704e-01  4.6652559353838052e-01 8.3623679056216343e-02 2.1672086032617396e-01  4.6639480989376769e-01 8.3874167540417502e-02 2.1578009490814823e-01  4.6626668217323403e-01 8.4122899265893322e-02 2.1485793545026702e-01  4.6614187151082337e-01 8.4368358946587105e-02 2.1395918019282398e-01  4.6602048478246771e-01 8.4610177807135437e-02 2.1308459614551634e-01  4.6590240212312123e-01 8.4848381610772045e-02 2.1223335037804775e-01  4.6578767595630372e-01 8.5082674391196697e-02 2.1140583531353555e-01  4.6567608505684138e-01 8.5313317399513408e-02 2.1060047804891199e-01  4.6556733629753533e-01 8.5540748285914667e-02 2.0981517871105260e-01  4.6546275136358584e-01 8.5761970763823067e-02 2.0905951611732695e-01  4.6536178097725117e-01 8.5977934720755059e-02 2.0832954726698355e-01  4.6526279317662245e-01 8.6191977633181635e-02 2.0761349164292892e-01  4.6516777147556226e-01 8.6399610974180793e-02 2.0692573098076292e-01  4.6507655124165886e-01 8.6600995367585629e-02 2.0626510114831614e-01  4.6498817002074799e-01 8.6798051888017716e-02 2.0562466365713875e-01  4.6490317389599778e-01 8.6989367338349208e-02 2.0500841286130958e-01  4.6482101650309771e-01 8.7176050186799109e-02 2.0441239467187425e-01  4.6474287142483528e-01 8.7355173636080391e-02 2.0384518526193013e-01  4.6466736056236052e-01 8.7529796097817775e-02 2.0329678051860714e-01  4.6459528264437622e-01 8.7697843985702087e-02 2.0277303765924681e-01  4.6452611374264124e-01 8.7860407642387658e-02 2.0227016774406861e-01  4.6445963351807673e-01 8.8017862325961718e-02 2.0178659207652833e-01  4.6439709948966557e-01 8.8167091945355464e-02 2.0133148093865469e-01  4.6433784119246324e-01 8.8309473376293898e-02 2.0090001357749662e-01  4.6428076150700226e-01 8.8447540249367212e-02 2.0048421001891273e-01  4.6422729254308337e-01 8.8577705900464432e-02 2.0009453099211164e-01  4.6417721503216847e-01 8.8700358729546708e-02 1.9972940557608501e-01  4.6412990950649269e-01 8.8816869716896396e-02 1.9938435368398910e-01  4.6408545763701237e-01 8.8926942061911415e-02 1.9905998294077523e-01  4.6404448498967876e-01 8.9028906962988416e-02 1.9876089136816608e-01  4.6486983921073638e-01 8.7064935101006602e-02 2.0476661919301720e-01  4.7374620043013577e-01 7.3696267897481640e-02 2.6835681669142403e-01  4.6442656941789079e-01 8.8096657506880519e-02 2.0154598473872032e-01  4.7113414270221105e-01 7.6557497306859124e-02 2.4969675154353760e-01  4.6403603168216079e-01 8.9050018922534210e-02 1.9869916923255138e-01  4.7557716656679216e-01 7.2049636545780713e-02 2.8146088013757059e-01  4.6566073127102081e-01 8.5345370670676324e-02 2.1048961951117606e-01  4.6771497839950987e-01 8.1491027612789382e-02 2.2525740823259188e-01  4.7698989813194292e-01 7.0949337506500565e-02 2.9159173538854244e-01  4.7323379232267487e-01 7.4206703185445477e-02 2.6469388654323539e-01  4.6574209844728559e-01 8.5176584053225049e-02 2.1107695022782605e-01  4.7546731478054449e-01 7.2141098406710971e-02 2.8067390269984621e-01  4.7416273745744242e-01 7.3298029204005188e-02 2.7133568067209768e-01  4.6646195927967626e-01 8.3745162106034624e-02 2.1626317561624051e-01  4.7188302534744880e-01 7.5668285196427459e-02 2.5504427410703578e-01  4.6407879448881612e-01 8.8943509800922207e-02 1.9901135080862900e-01  4.7633601068683451e-01 7.1441443022997458e-02 2.8690025490852977e-01  4.7692465216672703e-01 7.0997170940172757e-02 2.9112342266070390e-01  4.6385684024229934e-01 8.9502206415311217e-02 1.9738970651258503e-01  4.6745006077597456e-01 8.1944648218569796e-02 2.2335858186679744e-01  4.7070077716062453e-01 7.7100157856827695e-02 2.4660238634173451e-01  4.6859257857024034e-01 8.0070048622486567e-02 2.3153964341280001e-01  4.6380462808613260e-01 8.9635804411697148e-02 1.9700774177990008e-01  4.7717759950903305e-01 7.0813330526046409e-02 2.9293923695288010e-01  4.6954971358615544e-01 7.8649703888000203e-02 2.3838144125837585e-01  4.6946870905982291e-01 7.8765016237399704e-02 2.3780267717654938e-01  4.6381836718696356e-01 8.9600581580462191e-02 1.9710826751007704e-01  4.6443752051403009e-01 8.8070505945616495e-02 2.0162568635899902e-01  4.7263396097506694e-01 7.4834226991328343e-02 2.6040785218849094e-01  4.7632664921626955e-01 7.1448716641576482e-02 2.8683311809730100e-01  4.6645754476135265e-01 8.3753691631959420e-02 2.1623141831011947e-01  4.6489173192932037e-01 8.7015357241780403e-02 2.0492541260365296e-01  4.7720526235278815e-01 7.0793487158939336e-02 2.9313785798464692e-01  4.6879057381597194e-01 7.9765779576871282e-02 2.3295563482109780e-01  4.7019940803011245e-01 7.7755015066945057e-02 2.4302213582280355e-01  4.6388329121454869e-01 8.9434879841378628e-02 1.9758313056840143e-01  4.7481498731901867e-01 7.2703039927607696e-02 2.7600278743891393e-01  4.7456063093236017e-01 7.2930963972738433e-02 2.7418237252925998e-01  4.6421164971402362e-01 8.8615964014662138e-02 1.9998048950501737e-01  4.6522613000538993e-01 8.6271785447366689e-02 2.0734818327399285e-01  4.7186732326163716e-01 7.5686260776218900e-02 2.5493213994042635e-01  4.7670419167353767e-01 7.1160831938406222e-02 2.8954134476744980e-01  4.6704334020987442e-01 8.2664297923430441e-02 2.2044073366244418e-01  4.6396655546458360e-01 8.9224230359420467e-02 1.9819171547395187e-01  4.6604290424224643e-01 8.4565381739771392e-02 2.1324615644502454e-01  4.7713374768741790e-01 7.0844916686014822e-02 2.9262439293852077e-01  4.7597508727137144e-01 7.1725608165606927e-02 2.8431249600976249e-01  4.6823787410883877e-01 8.0630062909357633e-02 2.2900179859139277e-01  4.7266826897816350e-01 7.4797445096156295e-02 2.6065295799673421e-01  4.6463926930171889e-01 8.7595170166664890e-02 2.0309268713863793e-01  4.6465070470474151e-01 8.7568506188228146e-02 2.0317578670749126e-01  4.6686682151946368e-01 8.2985630972470845e-02 2.1917325713829525e-01  4.7662054064281406e-01 7.1223787793173746e-02 2.8894117021815829e-01  4.6791880632899102e-01 8.1150318973603308e-02 2.2671747091945713e-01  4.7318266913095852e-01 7.4258911060830407e-02 2.6432851474662999e-01  4.6520681815677550e-01 8.6314115598253652e-02 2.0720838870802008e-01  4.6608846183