<?xml version="1.0"?>
<VTKFile type="UnstructuredGrid"  version="0.1"  >
<UnstructuredGrid>
<Piece  NumberOfPoints="4940" NumberOfCells="9650">
<Points>
<DataArray  type="Float64"  NumberOfComponents="3"  format="ascii">500 250 0  0 250 0  250 500 0  250 0 0  256.8885856082646 499.9050767557906 0  263.7719401218049 499.6203791065173 0  270.6448364229772 499.1461232471188 0  277.5020553257866 498.4826693209355 0  284.3383895508592 497.6305211460281 0  291.1486476865662 496.5903258312597 0  297.9276581259182 495.3628732847843 0  304.6702729675493 493.9490956196674 0  311.3713719748657 492.3500664368026 0  318.0258664141369 490.5670000199653 0  324.6287029687753 488.6012504015818 0  331.1748675330201 486.4543103455647 0  337.6593890460416 484.1278102064655 0  344.0773432429536 481.6235166997244 0  350.4238564271474 478.9433315480048 0  356.694109139292 476.0892900492477 0  362.88333985546 473.0635595140469 0  368.9868485575419 469.8684376402048 0  375.0000003153078 466.5063507640667 0  380.9182288257928 462.9798520074548 0  386.7370398729688 459.2916193419558 0  392.4520147244077 455.444453565817 0  398.0588135356345 451.4412761437442 0  403.5531785622926 447.285127045646 0  408.9309374414144 442.9791624087773 0  414.1880064015299 438.5266521049243 0  419.3203932989752 433.9309773069245 0  424.324200661095 429.1956279150535 0  429.1956286596235 424.3241998957182 0  433.9309780058756 419.3203925397119 0  438.5266527445345 414.1880056671062 0  442.9791630130591 408.9309367076756 0  447.2851276060475 403.5531778422888 0  451.4412766621026 398.0588128303826 0  455.4444540361634 392.4520140460735 0  459.2916197786263 386.7370392045948 0  462.9798524073514 380.9182281752347 0  466.5063511234856 374.9999996927758 0  469.8684379657123 368.9868479560565 0  473.0635598144817 362.8833392617846 0  476.0892903190255 356.6941085676214 0  478.9433317963513 350.4238558609745 0  481.6235169154735 344.0773427117675 0  484.12781039012 337.6593885555221 0  486.4543105028062 331.1748670749914 0  488.601250531677 324.6287025528375 0  490.5670001317469 318.0258660188321 0  492.3500665291326 311.3713716102628 0  493.949095695951 304.6702726271575 0  495.3628733416623 297.9276578347343 0  496.5903258712341 291.1486474470129 0  497.6305211749058 284.3383893426084 0  498.4826693388848 277.502055163614 0  499.1461232580606 270.6448362909296 0  499.6203791109319 263.7719400417897 0  499.9050767571306 256.8885855596534 0  499.9050767559877 243.1114143988867 0  499.6203791069493 236.2280598860241 0  499.1461232485393 229.3551635941651 0  498.4826693235677 222.4979446979962 0  497.6305211491849 215.6616104719064 0  496.5903258357701 208.8513523404629 0  495.3628732906988 202.0723419043604 0  493.9490956264813 195.3297270628552 0  492.3500664487791 188.6286280724281 0  490.5670000344809 181.9741336371959 0  488.6012504175981 175.3712970824318 0  486.4543103623226 168.8251325157939 0  484.1278102222298 162.3406109960628 0  481.6235167152198 155.9226567951971 0  478.9433315621651 149.5761436051346 0  476.0892900516498 143.3058908657982 0  473.063559513628 137.1166601437124 0  469.8684376406648 131.0131514433083 0  466.5063507675389 124.9999996907064 0  462.9798520124137 119.0817711822745 0  459.2916193464549 113.2629601339176 0  455.4444535642773 107.5479852733717 0  451.4412761528674 101.9411864767781 0  447.2851270583545 96.44682145403524 0  442.9791624165781 91.06906256805769 0  438.5266521117469 85.81199360630404 0  433.9309773156125 80.67960671046254 0  429.1956279150353 75.67579933888632 0  424.3241998888952 70.80437133373906 0  419.3203925223282 66.06902197812161 0  414.1880056411937 61.47334723289828 0  408.9309366751728 57.0208369601728 0  403.5531778009394 52.71487236176898 0  398.058812796452 48.55872331295853 0  392.4520140187753 44.55554594490843 0  386.7370391799677 40.70838020528396 0  380.9182281475119 37.02014757560744 0  374.9999996718656 33.49364886444181 0  368.9868479340393 30.13156202237255 0  362.8833392380029 26.93644017348339 0  356.6941085456942 23.91070967062674 0  350.4238558420009 21.0566681953261 0  344.0773426899492 18.37648307566465 0  337.6593885328982 15.87218960140942 0  331.1748670549786 13.54568949032341 0  324.6287025315056 11.39874946165088 0  318.0258660010876 9.432999863235466 0  311.3713716017894 7.649933468721599 0  304.6702726190621 6.050904302234756 0  297.9276578269805 4.637126656823085 0  291.148647441857 3.409674127905504 0  284.3383893425031 2.369478825079682 0  277.502055159398 1.517330660648639 0  270.6448362875833 0.853876741662134 0  263.7719400401456 0.3796208889774277 0  256.8885855592052 0.09492324285704967 0  243.1114143979462 0.09492324403817065 0  236.2280598850882 0.3796208931023841 0  229.3551635938215 0.8538767514891958 0  222.4979446968584 1.517330676558146 0  215.6616104703111 2.369478851036291 0  208.8513523382973 3.409674164591252 0  202.0723419066374 4.637126708856528 0  195.3297270659513 6.050904372824903 0  188.628628074828 7.649933550613184 0  181.9741336377093 9.432999965373938 0  175.3712970793675 11.39874958336037 0  168.8251325057572 13.54568964112298 0  162.340610986655 15.87218978129263 0  155.9226567874317 18.37648328793418 0  149.576143602509 21.05666843898663 0  143.3058908718157 23.91070994551046 0  137.1166601505524 26.93644048291054 0  131.0131514451933 30.13156235831508 0  124.9999996848412 33.49364923584736 0  119.0817711715717 37.0201479941652 0  113.2629601211624 40.70838066187849 0  107.5479852622251 44.55554644345162 0  101.9411864693332 48.55872385260452 0  96.44682143286516 52.71487295812284 0  91.06906254351222 57.02083760363669 0  85.81199358272519 61.4733479087879 0  80.67960667988106 66.06902271253972 0  75.67579930062769 70.80437212218331 0  70.80437129287643 75.67580015310926 0  66.06902193673014 80.67960752263491 0  61.47334718684866 85.81199441168215 0  57.02083692524275 91.0690633672404 0  52.71487232786438 96.44682224262129 0  48.55872328070024 101.941187247437 0  44.55554591578033 107.5479860232332 0  40.7083801742321 113.2629608675606 0  37.02014754791168 119.0817718975441 0  33.49364883372994 125.000000381329 0  30.13156199866361 131.0131521097709 0  26.9364401549829 137.1166607985551 0  23.91070965524918 143.3058914868915 0  21.05666818346614 149.576144185037 0  18.37648306853811 155.9226573275967 0  15.8721895918909 162.3406114925245 0  13.54568948170046 168.8251329701392 0  11.39874945301878 175.3712974960928 0  9.432999857087736 181.9741340206533 0  7.649933466342702 188.6286284076045 0  6.050904301250966 195.3297273853278 0  4.637126656808988 202.0723421730917 0  3.409674127767772 208.8513525589684 0  2.369478824521138 215.6616106615248 0  1.517330660909465 222.4979448382452 0  0.8538767414496533 229.355163714981 0  0.3796208887135322 236.2280599646376 0  0.09492324266324204 243.1114144478261 0  0.0949232442452228 256.8885856095658 0  0.3796208935834784 263.7719401236316 0  0.8538767530323526 270.6448364248016 0  1.517330679476544 277.5020553295092 0  2.369478854618649 284.3383895555228 0  3.409674170191892 291.1486476952655 0  4.6371267162381 297.9276581311522 0  6.050904381420935 304.6702729724059 0  7.649933562385399 311.3713719716595 0  9.43299997979841 318.0258664133013 0  11.3987495994252 324.6287029719946 0  13.54568965885832 331.174867545904 0  15.87218979367188 337.6593890464085 0  18.37648329843151 344.0773432384132 0  21.05666844777872 350.423856417535 0  23.91070995156048 356.6941091410045 0  26.93644048988043 362.8833398632205 0  30.13156235982007 368.9868485575877 0  33.49364924138357 375.0000003247478 0  37.0201480006036 380.9182288389023 0  40.70838066758398 386.7370398875706 0  44.55554644477201 392.4520147396792 0  48.55872386086904 398.0588135419111 0  52.71487295981296 403.5531785693063 0  57.02083760525949 408.9309374584583 0  61.47334790862246 414.1880064170849 0  66.06902271205095 419.320393319588 0  70.80437211216579 424.3242006890749 0  75.67580013809859 429.195628692521 0  80.6796075127923 433.930978054209 0  85.81199439754931 438.5266528008431 0  91.06906334717917 442.9791630582355 0  96.44682221438322 447.2851276501571 0  101.9411872243843 451.441276702356 0  107.5479859945825 455.4444540643537 0  113.2629608446994 459.2916198108319 0  119.0817718768376 462.9798524393601 0  125.0000003647644 466.5063511567065 0  131.0131521012763 469.8684379967393 0  137.1166607840049 473.0635598376539 0  143.3058914748804 476.0892903390826 0  149.5761441732679 478.9433318113714 0  155.9226573130112 481.6235169255377 0  162.3406114779862 484.1278104026658 0  168.8251329570439 486.4543105138039 0  175.3712974805475 488.601250542119 0  181.9741340135204 490.5670001408953 0  188.6286284005059 492.3500665318597 0  195.3297273788229 493.9490956972913 0  202.0723421640089 495.3628733414168 0  208.8513525529672 496.5903258712308 0  215.6616106544547 497.6305211744985 0  222.4979448327038 498.4826693384772 0  229.3551637102845 499.1461232581612 0  236.2280599621369 499.6203791111485 0  243.1114144470173 499.9050767573145 0  155.2373389820306 474.8197567317462 0  25.36256300907667 153.9152755065208 0  432.3709625126712 412.6214396304305 0  6.013151705810699 246.637913163471 0  246.6379131630491 493.986848294322 0  338.6995838441862 22.68244767887072 0  477.3175523131281 338.6995838660569 0  493.9868482700757 246.6379131399102 0  246.6201155078769 6.218451882810491 0  417.6179310263282 72.7156044707053 0  102.2232990934413 445.0100869616822 0  63.66330858966404 92.20354579482142 0  391.3105220491464 50.73522820883105 0  72.79295043967942 418.0702734974704 0  448.290574428537 108.25674339002 0  402.4604651193511 440.7462829841712 0  97.55317348421397 59.11376320116034 0  136.7376477664901 33.58246472647134 0  363.3288394375288 465.6947312928271 0  44.0678766556007 381.0860953771871 0  469.6905266180034 142.3890690100806 0  22.68244791668644 338.6995843487432 0  338.699584349159 477.317552078365 0  173.389488083762 18.6681884918202 0  483.4809734778481 179.7121987795732 0  13.50237455842738 306.4709525540879 0  305.9825168523021 487.24416992
[...]
<PointData  Vectors="f_12"> 
<DataArray  type="Float64"  Name="f_12"  NumberOfComponents="3" format="ascii">4.8650078768333999e-01 1.8702566285280611e-01 4.1852635537128152e-01  4.8594565912140397e-01 2.6018967341878596e-01 3.7434343875193660e-01  4.9017535019335151e-01 1.7148762841371645e-01 4.4637800899780811e-01  5.2172230474645143e-01 1.7794806807710031e-01 5.9312886998759173e-01  4.9025989860748398e-01 1.7126825365203785e-01 4.4693812818220002e-01  4.9033725580841903e-01 1.7107095882764237e-01 4.4744851376819472e-01  4.9041309712371395e-01 1.7088064749379370e-01 4.4794704562776588e-01  4.9048268549797269e-01 1.7070849277138281e-01 4.4840297052029221e-01  4.9054807184135019e-01 1.7054906984617785e-01 4.4882996561615740e-01  4.9060882058749627e-01 1.7040281554743822e-01 4.4922553911606422e-01  4.9066497432584011e-01 1.7026923470228766e-01 4.4959022337697624e-01  4.9071697839628359e-01 1.7014695353632711e-01 4.4992710530529290e-01  4.9076427577283455e-01 1.7003691202564100e-01 4.5023279372508890e-01  4.9080647305935476e-01 1.6993968818865601e-01 4.5050495881529307e-01  4.9083981490200312e-01 1.6986345744829431e-01 4.5071962597925980e-01  4.9087618273088202e-01 1.6978104267244309e-01 4.5095340638434911e-01  4.9089707028621488e-01 1.6973400401036368e-01 4.5108745808161016e-01  4.9091940002848339e-01 1.6968407691275630e-01 4.5123061905061868e-01  4.9093508737852698e-01 1.6964931076855772e-01 4.5133103687681553e-01  4.9094624184566438e-01 1.6962483740617454e-01 4.5140233073904101e-01  4.9095348558803670e-01 1.6960918431507757e-01 4.5144852846878392e-01  4.9095182132595450e-01 1.6961351277256856e-01 4.5143762051532604e-01  4.9094432932375853e-01 1.6963092586229733e-01 4.5138936207702379e-01  4.9093587636207964e-01 1.6965059628673745e-01 4.5133491271806003e-01  4.9092149431656523e-01 1.6968365591067328e-01 4.5124240733184628e-01  4.9089929995055231e-01 1.6973455561077452e-01 4.5109962831146472e-01  4.9086847461909783e-01 1.6980526523348391e-01 4.5090122452452835e-01  4.9083704996878358e-01 1.6987788013809432e-01 4.5069868724205964e-01  4.9080052807672486e-01 1.6996278480830193e-01 4.5046296560074850e-01  4.9075368023691740e-01 1.7007226924138066e-01 4.5016015198633852e-01  4.9070482061108217e-01 1.7018763738373024e-01 4.4984365568111329e-01  4.9064921988828369e-01 1.7032028865013324e-01 4.4948262937614047e-01  4.9058755101725021e-01 1.7046901979321097e-01 4.4908121217954122e-01  4.9052251661873003e-01 1.7062790781923012e-01 4.4865666148347189e-01  4.9044737062349569e-01 1.7081395666994023e-01 4.4816453806097972e-01  4.9036760943300295e-01 1.7101450866154719e-01 4.4764033783890556e-01  4.9028586287610842e-01 1.7122346952158798e-01 4.4710103998912670e-01  4.9019471872834780e-01 1.7146056456210373e-01 4.4649721214156929e-01  4.9009391830447802e-01 1.7172795345609954e-01 4.4582626068118525e-01  4.8999029569559255e-01 1.7200868434891944e-01 4.4513302031955609e-01  4.8988453838299872e-01 1.7230161451556159e-01 4.4442167766065893e-01  4.8976968167302998e-01 1.7262724133946564e-01 4.4364459539200851e-01  4.8964572763905584e-01 1.7298720796718345e-01 4.4280078886805424e-01  4.8951824253741361e-01 1.7336780212204880e-01 4.4192679576251953e-01  4.8938339927650543e-01 1.7378206519561010e-01 4.4099538587173787e-01  4.8924245239816666e-01 1.7422806328847090e-01 4.4001406689790479e-01  4.8909631486146016e-01 1.7470548358932009e-01 4.3898772737082731e-01  4.8894568453537302e-01 1.7521424421031709e-01 4.3792004054324274e-01  4.8878449999275425e-01 1.7577890598459919e-01 4.3676550124396807e-01  4.8861935314719096e-01 1.7637907740574765e-01 4.3556989490612091e-01  4.8844943544340458e-01 1.7702294467184679e-01 4.3432433448389929e-01  4.8827344974909037e-01 1.7771726135547269e-01 4.3301821435010107e-01  4.8809368464494357e-01 1.7845980550284379e-01 4.3166466139169812e-01  4.8790599210822100e-01 1.7927217730569817e-01 4.3022983546638777e-01  4.8771471027266178e-01 1.8014296259164111e-01 4.2874272664017671e-01  4.8752103241081124e-01 1.8107316661283618e-01 4.2720901304896347e-01  4.8732198170863511e-01 1.8208474173657704e-01 4.2560069710000492e-01  4.8712040982395088e-01 1.8317291996308024e-01 4.2393540262569396e-01  4.8691740152976470e-01 1.8433936241199600e-01 4.2221763176123672e-01  4.8671682452230219e-01 1.8556330713086078e-01 4.2048004577006515e-01  4.8629721816981658e-01 1.8847699968057977e-01 4.1664300750360916e-01  4.8609460757156264e-01 1.9006753617338756e-01 4.1468612707103875e-01  4.8589710734150732e-01 1.9177206442765887e-01 4.1269157648022686e-01  4.8570012192094020e-01 1.9365099023876733e-01 4.1060064303109739e-01  4.8551116131319350e-01 1.9567544966476486e-01 4.0846982603130971e-01  4.8533044103667700e-01 1.9786482444343434e-01 4.0628883059165632e-01  4.8516177459049870e-01 2.0023713011808261e-01 4.0406827935390377e-01  4.8500637851780931e-01 2.0281291429697823e-01 4.0180269667193097e-01  4.8486834373889504e-01 2.0559761503674248e-01 3.9951080024301822e-01  4.8475117368656528e-01 2.0860378755870310e-01 3.9720415136388904e-01  4.8465711450155369e-01 2.1190066233769159e-01 3.9485525403720695e-01  4.8459228159990092e-01 2.1544510834284492e-01 3.9252107773340961e-01  4.8456019258833444e-01 2.1929499228141397e-01 3.9018687126552237e-01  4.8456662476438045e-01 2.2350190725164795e-01 3.8785390363219080e-01  4.8461776318512273e-01 2.2807756475329413e-01 3.8554712783982592e-01  4.8472055230601846e-01 2.3304075385723408e-01 3.8329193062669353e-01  4.8488178718742142e-01 2.3843034153984552e-01 3.8110011700015745e-01  4.8511034273189452e-01 2.4428349284176815e-01 3.7899549935368088e-01  4.8541618769720940e-01 2.5066018418018859e-01 3.7699323798858203e-01  4.8580889732544319e-01 2.5759353714925393e-01 3.7512013191095117e-01  4.8629289551685834e-01 2.6503359308242613e-01 3.7342223288453497e-01  4.8689573971288874e-01 2.7321031659004047e-01 3.7190474827684650e-01  4.8762026486229854e-01 2.8203301432770683e-01 3.7062344842822431e-01  4.8848322669441380e-01 2.9158199921462263e-01 3.6960602247420260e-01  4.8950035403738124e-01 3.0187861222105933e-01 3.6890329751617562e-01  4.9068540412644046e-01 3.1292602561785715e-01 3.6856168440970721e-01  4.9205256010818055e-01 3.2472187908964301e-01 3.6862647363766921e-01  4.9361369173566472e-01 3.3722643826080789e-01 3.6914864783507140e-01  4.9537861887182699e-01 3.5039167247668990e-01 3.7016129398756242e-01  4.9734906170924209e-01 3.6407267250576519e-01 3.7171496025836925e-01  4.9951201553962749e-01 3.7806530016680784e-01 3.7381532030482190e-01  5.0183710033291806e-01 3.9207341341322766e-01 3.7644441837904258e-01  5.0425618938316186e-01 4.0562845413745768e-01 3.7953327889980959e-01  5.0670398361747915e-01 4.1837554029831880e-01 3.8297043646530743e-01  5.0903172774792727e-01 4.2963357130245555e-01 3.8652228522695192e-01  5.1097542506440075e-01 4.3833252050140731e-01 3.8975182230727384e-01  5.1228222571775550e-01 4.4361224308162583e-01 3.9220199526895222e-01  5.1265449328379931e-01 4.4437224150002480e-01 3.9341358216857875e-01  5.1161927010480435e-01 4.3846561088481800e-01 3.9270960988576831e-01  5.0892716875946442e-01 4.2399811141428340e-01 3.8999135867356954e-01  5.0471871054333883e-01 3.9974302266624062e-01 3.8595117815879609e-01  4.9925537754448746e-01 3.6408159352440306e-01 3.8195315665264601e-01  4.9375551693605141e-01 3.2137522590895390e-01 3.8034075562366360e-01  4.8934814605442811e-01 2.7711665253005840e-01 3.8370554651830818e-01  4.8699357404107901e-01 2.3842305113675147e-01 3.9350125226466204e-01  4.8685530305198832e-01 2.0868338925359176e-01 4.0945021715124086e-01  4.8854139132104468e-01 1.8809100322259517e-01 4.2967325461746181e-01  4.9146696254735645e-01 1.7499458065780849e-01 4.5199849345329418e-01  4.9511724054680017e-01 1.6744241512191885e-01 4.7469150922357251e-01  4.9908865950231734e-01 1.6379526770911346e-01 4.9645826009106242e-01  5.0309174789463573e-01 1.6282505910852271e-01 5.1649550677346545e-01  5.0693498190763631e-01 1.6370817131134491e-01 5.3432771253286238e-01  5.1051473713921647e-01 1.6573608001603174e-01 5.4991401940057250e-01  5.1381607189103462e-01 1.6847654640453219e-01 5.6349849836226029e-01  5.1678005065155685e-01 1.7157134455098205e-01 5.7506854274729924e-01  5.1942508584364011e-01 1.7480028730953742e-01 5.8492993140577176e-01  5.2361748650550810e-01 1.8081222965691818e-01 5.9964029168188737e-01  5.2552837454030776e-01 1.8381565413395273e-01 6.0603488896631319e-01  5.2679777952517304e-01 1.8600868904111872e-01 6.1008676063063350e-01  5.2789602007642311e-01 1.8795451005618738e-01 6.1354471600144900e-01  5.2874190598877602e-01 1.8949416456398088e-01 6.1615766700742403e-01  5.2929853480630085e-01 1.9053331422069711e-01 6.1785168047297190e-01  5.2959089561981632e-01 1.9108459735105321e-01 6.1873357272897755e-01  5.2964818206065267e-01 1.9119071052876174e-01 6.1890682081264792e-01  5.2944956499836426e-01 1.9081162793909290e-01 6.1830920693094349e-01  5.2910766443863022e-01 1.9015888588444663e-01 6.1727976551230623e-01  5.2835769904391994e-01 1.8877036290751026e-01 6.1498401735757346e-01  5.2740232622733341e-01 1.8704919613033352e-01 6.1200701712760319e-01  5.2619788665377099e-01 1.8495277969258953e-01 6.0817859740335301e-01  5.2478724398211984e-01 1.8259589783472271e-01 6.0357754463543023e-01  5.2308864806314714e-01 1.7991694397968269e-01 5.9786983455009712e-01  5.2107536907715601e-01 1.7696395243172028e-01 5.9087357071936553e-01  5.1882338285093332e-01 1.7394403499348080e-01 5.8274866487812027e-01  5.1631662072083917e-01 1.7093939115370835e-01 5.7332864146089679e-01  5.1355903681567194e-01 1.6809410203798023e-01 5.6250167034987530e-01  5.1055520579304192e-01 1.6558072342660418e-01 5.5014186854702962e-01  5.0731031516528813e-01 1.6364581515975152e-01 5.3607331509739875e-01  5.0389104143883956e-01 1.6257608538228766e-01 5.2040149379888656e-01  5.0039901125827313e-01 1.6274915618213684e-01 5.0336466387916057e-01  4.9692352021819414e-01 1.6461462718197403e-01 4.8515031384122936e-01  4.9359184443543053e-01 1.6873094877325773e-01 4.6610218483807342e-01  4.9059326461962299e-01 1.7577411992048445e-01 4.4686125633900975e-01  4.8814825331262734e-01 1.8648538988209443e-01 4.2823576292436782e-01  4.8650700926470247e-01 2.0153297109157869e-01 4.1125375368968020e-01  4.8588502861722155e-01 2.2131713092027783e-01 3.9688168395521511e-01  4.8639939805236254e-01 2.4549741386889734e-01 3.8590174995994558e-01  4.8799391239735934e-01 2.7280148679539784e-01 3.7860527113741305e-01  4.9038194147033204e-01 3.0082122839233577e-01 3.7467680529323061e-01  4.9315565038894166e-01 3.2707483864610809e-01 3.7332507388853320e-01  4.9587868687859948e-01 3.4936166247229877e-01 3.7362394001966870e-01  4.9824558532285046e-01 3.6693012063802988e-01 3.7463680667288135e-01  4.9998979946801114e-01 3.7908522723824473e-01 3.7566703351564634e-01  5.0104902891388947e-01 3.8628751691027763e-01 3.7631469880795559e-01  5.0145813016892371e-01 3.8923966605250437e-01 3.7642665178495005e-01  5.0130806058314303e-01 3.8869861353423335e-01 3.7601216712042007e-01  5.0071839019674158e-01 3.8539617527922354e-01 3.7518428844551455e-01  4.9985416001581673e-01 3.8025883257202397e-01 3.7413925257758168e-01  4.9879508527334365e-01 3.7368104121591483e-01 3.7298455340218090e-01  4.9759335506816221e-01 3.6589092455739614e-01 3.7181029350378986e-01  4.9636548130039204e-01 3.5757858188404457e-01 3.7075133492838575e-01  4.9514918997404139e-01 3.4896096291002249e-01 3.6985777264268682e-01  4.9396761927789945e-01 3.4019100591790791e-01 3.6915693698136548e-01  4.9282867045482820e-01 3.3130954108231131e-01 3.6866828515619138e-01  4.9179428357236793e-01 3.2281795303840582e-01 3.6841510542283284e-01  4.9082512397790001e-01 3.1443535113986804e-01 3.6837967930487447e-01  4.8994693155617142e-01 3.0642413140049074e-01 3.6854342458643774e-01  4.8914337604129188e-01 2.9863986964276157e-01 3.6892272374335322e-01  4.8842819032787615e-01 2.9129431105330222e-01 3.6946926902895250e-01  4.8779646170259572e-01 2.8436826369242252e-01 3.7018036563903978e-01  4.8723622010225709e-01 2.7779303304730046e-01 3.7103895271346865e-01  4.8674343442158408e-01 2.7156406311477105e-01 3.7203327714533069e-01  4.8631524042823432e-01 2.6570641410498858e-01 3.7313778509706291e-01  4.8563017797122982e-01 2.5500680361716921e-01 3.7563351189448896e-01  4.8536443314662925e-01 2.5014391318480900e-01 3.7699564536859076e-01  4.8514218343416582e-01 2.4554587170245354e-01 3.7843102687161245e-01  4.8496114102138510e-01 2.4123916915773896e-01 3.7991349682715136e-01  4.8481703388592834e-01 2.3719362022328710e-01 3.8143951887680583e-01  4.8470617408688349e-01 2.3339113890742519e-01 3.8300082092383481e-01  4.8462545595883044e-01 2.2981553980331107e-01 3.8459104927370591e-01  4.8457184219081267e-01 2.2645603520911559e-01 3.8620081213871627e-01  4.8454265575046462e-01 2.2329478788937510e-01 3.8782664569314174e-01  4.8453541880826057e-01 2.2031952890083484e-01 3.8946267905262999e-01  4.8454808317662612e-01 2.1751857001745481e-01 3.9110510379245877e-01  4.8457792416664558e-01 2.1489130365762463e-01 3.9273978005749355e-01  4.8462401480409972e-01 2.1239726416416269e-01 3.9438500661108106e-01  4.8468423615973988e-01 2.1004267489656891e-01 3.9602610110313441e-01  4.8475659697973988e-01 2.0783636058571683e-01 3.9764758359884034e-01  4.8484161752419253e-01 2.0572234978166717e-01 3.9928387408308758e-01  4.8493654928846108e-01 2.0372855022383721e-01 4.0090465817923937e-01  4.8503886360056886e-01 2.0187101534268628e-01 4.0248738425092123e-01  4.8515001374124489e-01 2.0010054758448648e-01 4.0406778732050769e-01  4.8526775595002891e-01 1.9842383339139333e-01 4.0562982538898545e-01  4.8539185404823731e-01 1.9683390766153402e-01 4.0717642450859742e-01  4.8552121901899431e-01 1.9532815721295158e-01 4.0870319627371271e-01  4.8565546695336198e-01 1.9389663837304402e-01 4.1021365032164769e-01  4.8579421745575541e-01 1.9253455140552125e-01 4.1170849386530739e-01  4.8593506297260397e-01 1.9125260298128002e-01 4.1316896726597480e-01  4.8607930410323780e-01 1.9003148101881176e-01 4.1461276456540291e-01  4.8622658613756453e-01 1.8886450457213474e-01 4.1604177239327100e-01  4.8637390471109421e-01 1.8777003878698376e-01 4.1742979957369836e-01  4.8652417678961957e-01 1.8671933329562435e-01 4.1880840159887289e-01  4.8667530845870283e-01 1.8572098135675924e-01 4.2016161882622444e-01  4.8682659586857224e-01 1.8477471809721965e-01 4.2148597487696771e-01  4.8697826272814176e-01 1.8387441466217416e-01 4.2278605890315651e-01  4.8712981508948922e-01 1.8301849660258160e-01 4.2406016004810027e-01  4.8728159282573902e-01 1.8220154123467197e-01 4.2531311599074489e-01  4.8743400549770088e-01 1.8141813241186630e-01 4.2655009418679685e-01  4.8758312885826571e-01 1.8068423199855432e-01 4.2774157323505918e-01  4.8773063758718221e-01 1.7998850154994880e-01 4.2890273514368837e-01  4.8788023776588396e-01 1.7931122052341170e-01 4.3006403199071475e-01  4.8802637361873713e-01 1.7867501660139443e-01 4.3118370820612822e-01  4.8816940572944073e-01 1.7807556624299264e-01 4.3226611896306855e-01  4.8831159682268654e-01 1.7750078599318192e-01 4.3332986488999509e-01  4.8845115358360780e-01 1.7695587562885198e-01 4.3436267158697450e-01  4.8858956655242891e-01 1.7643372516297526e-01 4.3537636449893174e-01  4.8872303660923677e-01 1.7594586169564511e-01 4.3634461743130659e-01  4.8885551361567009e-01 1.7547695183592918e-01 4.3729673525069623e-01  4.8898425590670530e-01 1.7503463147881138e-01 4.3821412913973656e-01  4.8911069302813637e-01 1.7461271994274097e-01 4.3910770129804461e-01  4.8923517880107159e-01 1.7420881363514354e-01 4.3998069142760593e-01  4.8935405391420578e-01 1.7383350876221315e-01 4.4080820881628113e-01  4.8946896022099678e-01 1.7347995759031237e-01 4.4160259334899804e-01  4.8958279178040670e-01 1.7313828722979754e-01 4.4238446958653860e-01  4.8969138914860832e-01 1.7282006982026624e-01 4.4312576160504302e-01  4.8979521779151114e-01 1.7252267625424711e-01 4.4383042362495106e-01  4.8989593883123767e-01 1.7224040041723385e-01 4.4451025235879610e-01  4.8999313830750230e-01 1.7197346367097321e-01 4.4516304475019114e-01  4.9008490360560997e-01 1.7172645633998632e-01 4.4577630766993043e-01  4.8849595808122387e-01 1.7678324448748980e-01 4.3469254210530139e-01  4.9859435106114003e-01 3.7241290839722047e-01 3.7277209180466508e-01  4.9044666734813169e-01 1.7081373675436581e-01 4.4816067192315989e-01  4.8615380542561781e-01 2.6335929101967809e-01 3.7362893334226271e-01  4.9009711889413887e-01 1.7169241638547880e-01 4.4585829498112273e-01  4.9223295884072649e-01 3.0575618479418265e-01 3.8191224016745012e-01  4.8898170847772687e-01 1.7508898274795187e-01 4.3817693451704481e-01  4.8637212549019304e-01 1.8791333566553348e-01 4.1735226569521094e-01  5.2221109428412027e-01 1.7867133656760589e-01 5.9485026713383149e-01  4.9649050249679400e-01 3.5821526022848005e-01 3.7099563526681401e-01  4.8718195678920290e-01 1.8273215135989765e-01 4.2449354759574681e-01  4.8972990936808380e-01 2.9253802113101329e-01 3.7620111007872298e-01  5.0841310613612789e-01 4.2673709762180001e-01 3.8554627521768570e-01  4.8628667821514321e-01 1.8840729773562737e-01 4.1661366815368150e-01  4.8730165278995580e-01 2.7826286234508418e-01 3.7112776639190198e-01  4.9078564465540048e-01 1.6999535522302262e-01 4.5036758621528139e-01  4.9491974105144615e-01 1.6692989036245243e-01 4.7384543579124105e-01  5.1708298089122329e-01 1.7185289022245803e-01 5.7624289313526855e-01  4.9091442729877877e-01 1.6969547167562243e-01 4.5119865457401515e-01  4.8532418042263398e-01 1.9767847585231282e-01 4.0634523264958222e-01  4.8480852363371224e-01 2.3617270881533428e-01 3.8198799971975206e-01  4.8464604964476016e-01 2.1142523945412120e-01 3.9504713755763876e-01  4.9087447151180141e-01 1.6978413396730918e-01 4.5094264416956492e-01  5.2727759398994234e-01 1.8684088361075191e-01 6.1162255795420128e-01  4.8468186487415382e-01 2.1089126143696860e-01 3.9555252746602898e-01  4.8455767843096154e-01 2.2521930818549202e-01 3.8682163977830697e-01  4.9069863109766254e-01 1.7018870313029846e-01 4.4980876251881580e-01  4.8926590265268244e-01 1.7410881962979452e-01 4.4019595586441784e-01  4.9138144139764023e-01 3.1929993640340626e-01 3.6837313810807804e-01  4.9656871620986598e-01 1.6591196772259781e-01 4.8282812173747180e-01  4.8796337584528610e-01 1.7901629497222946e-01 4.3067230438284465e-01  4.8992265835004328e-01 1.7219357870937324e-01 4.4467907789267486e-01  5.2907812148609179e-01 1.9013381776867086e-01 6.1718185890119914e-01  4.8521442327574354e-01 1.9945456788881166e-01 4.0478449050868687e-01  4.8489728391187037e-01 2.3954029986985267e-01 3.8053639129966638e-01  4.9048177051041331e-01 1.7070953231106134e-01 4.4839738514180205e-01  5.1292954516127209e-01 4.4488559264828609e-01 3.9432438677250109e-01  5.0177200449197967e-01 3.9080968702261037e-01 3.7697843475273873e-01  4.8971456436566208e-01 1.7275161736509315e-01 4.4328393142683381e-01  4.8792398882760446e-01 1.7911501144221367e-01 4.3040217938383074e-01  4.8809840399363780e-01 2.8773736601698963e-01 3.6980831763127009e-01  5.1136489214211478e-01 1.6642359916455199e-01 5.5346778853809886e-01  4.8720966170439028e-01 1.8268087673900385e-01 4.2467804503700463e-01  4.9085911929801629e-01 1.6982342877024811e-01 4.5084222279002895e-01  4.8849143692989566e-01 1.7685791790806418e-01 4.3463499413626039e-01  5.2704671053219887e-01 1.8646591507364355e-01 6.1087467645481430e-01  4.8738934086325669e-01 2.0060923296507796e-01 4.1678429093827080e-01  4.8576448196443095e-01 1.9300566437974406e-01 4.1130077881521165e-01  4.9149584261991902e-01 3.2001868446140730e-01 3.6855193380863682e-01  4.8889384341218428e-01 1.7534233077623176e-01 4.3757117819625213e-01  4.9019299732249988e-01 1.7146217586800783e-01 4.4648691520802331e-01  4.8585244186647608e-01 1.9198865750109381e-01 4.1232074495378307e-01  5.0503705930812470e-01 1.6290479004518940e-01 5.2572030868080599e-01  4.8498306028747917e-01 2.0284463922200413e-01 4.0164593532537868e-01  4.9468090389531838e-01 3.4552933121881046e-01 3.6955955028914800e-01  4.8954370331258079e-01 1.7328848348565426e-01 4.4210277447483581e-01  4.8672972597