<?xml version="1.0"?>
<VTKFile type="UnstructuredGrid"  version="0.1"  >
<UnstructuredGrid>
<Piece  NumberOfPoints="25605" NumberOfCells="50684">
<Points>
<DataArray  type="Float64"  NumberOfComponents="3"  format="ascii">500 250 0  0 250 0  250 500 0  250 0 0  252.9976310880008 499.9820277697183 0  255.994831180465 499.9281136629446 0  258.9911693467 499.8382654314166 0  261.9862147844171 499.7124959931758 0  264.9795368730259 499.550823430959 0  267.9707052380909 499.3532709896657 0  270.9592898147818 499.1198670729815 0  273.944860911003 498.850645239173 0  276.9269892620302 498.5456441969613 0  279.9052461102784 498.204907798141 0  282.879203246639 497.8284850332306 0  285.8484330760252 497.4164300243493 0  288.812508703066 496.9688020138868 0  291.7710039592635 496.4856653605544 0  294.7234934645729 495.9670895309458 0  297.6695527219374 495.4131490839284 0  300.6087581526373 494.8239236640241 0  303.5406871632312 494.1994979890193 0  306.4649182085955 493.5399618372653 0  309.3810308492501 492.8454100354388 0  312.2886058121011 492.1159424449053 0  315.1872250543244 491.3516639464432 0  318.0764718164482 490.552684426976 0  320.9559306911491 489.7191187614222 0  323.8251876776197 488.8510867975364 0  326.6838302398962 487.9487133391117 0  329.5314473625203 487.0121281293906 0  332.3676296259557 486.0414658270902 0  335.1919692490408 485.0368659922747 0  338.0040601519906 483.9984730650284 0  340.8034980252745 482.926436340691 0  343.5898803648273 481.8209099570125 0  346.3628065522297 480.6820528636277 0  349.1218779058009 479.5100288014175 0  351.866697726272 478.3050062840155 0  354.5968713702315 477.0671585667096 0  357.3120063039883 475.7966636224122 0  360.0117121560444 474.4937041177227 0  362.6956007624657 473.158467392091 0  365.3632862410136 471.7911454221605 0  368.0143850392318 470.39193479756 0  370.6485159774368 468.9610366993228 0  373.2653003309281 467.4986568563726 0  375.8643618621848 466.0050055277077 0  378.4453268904447 464.4802974634425 0  381.0078243277097 462.9247518841339 0  383.5514857466806 461.3385924407896 0  386.0759454147861 459.7220471945478 0  388.5808403686633 458.0753485704519 0  391.0658104727646 456.398733318938 0  393.5304984398443 454.6924425024281 0  395.9745499014433 452.9567214483695 0  398.3976134594079 451.1918197133078 0  400.7993407313268 449.3979910505549 0  403.1793863983767 447.5754933756127 0  405.5374082633365 445.7245887228382 0  407.8730672875487 443.8455432173283 0  410.1860276678057 441.9386270139729 0  412.4759568502628 440.0041142859584 0  414.7425255888164 438.0422831775295 0  416.9854079982472 436.0534157591817 0  419.2042816111551 434.0377979776246 0  421.3988273934515 431.9957196423856 0  423.5687298230711 429.9274743545459 0  425.7136769203488 427.833359477718 0  427.8333602660664 425.7136761224903 0  429.9274751166117 423.5687290330868 0  431.9957203865596 421.3988266032683 0  434.0377986976932 419.2042808279605 0  436.0534164531565 416.9854072250276 0  438.0422838486247 414.7425248228072 0  440.0041149354581 412.4759560907189 0  441.9386276454979 410.1860269110977 0  443.8455438341414 407.8730665301906 0  445.7245893245478 405.5374075061595 0  447.5754939498422 403.1793856577179 0  449.3979916037435 400.7993399998601 0  451.1918202566634 398.3976127227471 0  452.9567219786559 395.9745491641559 0  454.6924430171686 393.53049770576 0  456.3987338202434 391.0658097392857 0  458.0753490553683 388.5808396405746 0  459.7220476673142 386.0759446861523 0  461.3385928978555 383.5514850233965 0  462.924752323721 381.0078236132563 0  464.4802978831972 378.4453261895309 0  466.005005928237 375.8643611748071 0  467.4986572464557 373.2652996426359 0  468.9610370690891 370.64851530636 0  470.3919351512159 368.0143843787793 0  471.7911457549822 365.363285601149 0  473.1584677051019 362.6956001426453 0  474.4937044170927 360.0117115451396 0  475.7966639080153 357.3120057030471 0  477.0671588375024 354.5968707823731 0  478.3050065468899 351.8666971371142 0  479.5100290514928 349.1218773267684 0  480.68205310082 346.3628059844174 0  481.8209101826405 343.5898798059497 0  482.926436550004 340.8034974883511 0  483.9984732613996 338.0040596298491 0  485.0368661774559 335.1919687381426 0  486.0414660017697 332.3676291253755 0  487.0121282892932 329.5314468859938 0  487.9487134870012 326.6838297809975 0  488.8510869337421 323.825187236945 0  489.7191188882317 320.9559302627332 0  490.5526845449373 318.0764713996244 0  491.3516640573307 315.1872246437704 0  492.1159425458163 312.2886054198597 0  492.8454101279934 309.3810304707378 0  493.5399619220304 306.4649178429931 0  494.1994980644915 303.5406868190015 0  494.8239237308971 300.6087578291331 0  495.4131491423161 297.6695524213444 0  495.9670895813101 294.7234931875826 0  496.4856654030534 291.7710037084818 0  496.9688020494549 288.8125084767419 0  497.416430053242 285.8484328766153 0  497.8284850586459 282.8792030550702 0  498.2049078189591 279.9052459374942 0  498.5456442137286 276.9269891072627 0  498.850645253019 273.9448607671062 0  499.1198670835989 270.9592896885852 0  499.3532709967772 267.9707051394148 0  499.5508234355897 264.9795367958812 0  499.7124959959075 261.9862147275054 0  499.8382654331632 258.9911692981657 0  499.928113663985 255.99483113709 0  499.9820277699785 252.9976310663071 0  499.9820277697257 247.0023689126091 0  499.9281136630343 244.0051688232745 0  499.8382654314717 241.0088306548307 0  499.7124959931211 238.0137852144455 0  499.5508234310553 235.0204631285785 0  499.3532709900699 232.0292947675166 0  499.119867073792 229.0407101948513 0  498.8506452406773 226.0551391046306 0  498.5456441987692 223.0730107546571 0  498.2049078002218 220.0947539069917 0  497.8284850356648 217.120796771709 0  497.4164300267099 214.151566940267 0  496.968802017216 211.187491318118 0  496.4856653659872 208.2289960727951 0  495.9670895372035 205.2765065698432 0  495.4131490907147 202.330447313 0  494.8239236713522 199.3912418828135 0  494.1994979969027 196.4593128727251 0  493.5399618460726 193.5350818293917 0  492.8454100458835 190.6189691934644 0  492.1159424557956 187.7113942302294 0  491.3516639574156 184.8127749862999 0  490.5526844387521 181.923528225163 0  489.7191187738694 179.0440693509028 0  488.851086810667 176.1748123648628 0  487.948713352938 173.3161698030064 0  487.0121281439243 170.4685526807917 0  486.0414658415049 167.6323704153526 0  485.0368660060558 164.8080307889799 0  483.9984730779887 161.9959398824702 0  482.9264363544502 159.1965020100202 0  481.8209099702043 156.4101196678486 0  480.6820528745703 153.6371934739656 0  479.5100288124721 150.8781221197951 0  478.3050062927852 148.1333022933829 0  477.0671585723666 145.403128642049 0  475.796663627405 142.687993706517 0  474.4937041236649 139.9882878560814 0  473.1584673984938 137.3043992502131 0  471.7911454319914 134.6367137778867 0  470.3919348096422 131.9856149833316 0  468.9610367113798 129.3514840444451 0  467.49865687022 126.7346996935054 0  466.0050055427385 124.1356381636107 0  464.4802974781252 121.5546731340727 0  462.9247519005733 118.992175699009 0  461.3385924615702 116.4485142862037 0  459.722047215144 113.924054616957 0  458.0753485880027 111.4191596576888 0  456.3987333337139 108.9341895488548 0  454.692442514023 106.4695015766915 0  452.95672145825 104.0254501122942 0  451.1918197247282 101.6023865560754 0  449.3979910627008 99.20065928473332 0  447.5754933882043 96.82061361786421 0  445.7245887341124 94.46259175085058 0  443.8455432269008 92.12693272420489 0  441.9386270210269 89.81397234064673 0  440.0041142971544 87.52404316283014 0  438.0422831897421 85.25747442512349 0  436.0534157701649 83.01459201399018 0  434.0377979907771 80.79571840315057 0  431.9957196541004 78.60117261898753 0  429.9274743620823 76.43127018474144 0  427.8333594859367 74.28632308796901 0  425.7136761283247 72.16663973969838 0  423.5687290359737 70.07252488617331 0  421.3988265987173 68.00427960915448 0  419.2042808240311 65.962201298694 0  416.9854072196475 63.94658354201471 0  414.742524818212 61.95771614734943 0  412.4759560828471 59.99588505781063 0  410.1860269003736 58.06137234555209 0  407.8730665183855 56.15445615624427 0  405.5374074948106 54.27541066643354 0  403.1793856410161 52.424506037209 0  400.7993399855741 50.60200838545225 0  398.3976127114923 48.80817973503514 0  395.9745491514178 47.04327801218227 0  393.5304976958927 45.30755697591243 0  391.0658097308475 43.60126617398947 0  388.5808396359472 41.92465094154986 0  386.0759446832285 40.27795233078868 0  383.5514850239504 38.66140710249451 0  381.007823619977 37.07524768041412 0  378.4453262000283 35.51970212308933 0  375.8643611921311 33.99499408185753 0  373.2652996617874 32.50134276439832 0  370.6485153256615 31.03896294154612 0  368.0143843882092 29.60806485383361 0  365.3632855907917 28.2088542396306 0  362.6956001322776 26.84153228966238 0  360.0117115354126 25.50629557814059 0  357.3120057003284 24.20333609069269 0  354.596870775138 22.93284115916481 0  351.8666971306181 21.69499345021163 0  349.121877320111 20.48997094563194 0  346.3628059771881 19.31794689616012 0  343.5898798100648 18.17908981902079 0  340.8034974914794 17.07356345121562 0  338.0040596332272 16.00152673987083 0  335.1919687416658 14.9631338238211 0  332.3676291322006 13.95853400061199 0  329.5314468917599 12.98787171264172 0  326.6838297822748 12.05128651341042 0  323.8251872378164 11.14891306652726 0  320.9559302656854 10.28088111264219 0  318.076471404611 9.447315456473888 0  315.1872246503818 8.648335944454999 0  312.2886054290304 7.88405745654299 0  309.3810304838133 7.154589875203868 0  306.4649178487239 6.460038079298243 0  303.5406868253978 5.800501936910877 0  300.6087578339258 5.176076270093546 0  297.669552426172 4.586850858621602 0  294.7234931936628 4.0329104197954 0  291.7710037123022 3.514334597594029 0  288.8125084726372 3.031197949900047 0  285.8484328697872 2.58356994576863 0  282.8792030484304 2.171514940473202 0  279.905245932244 1.795092180408318 0  276.9269891008954 1.454
[...]
<PointData  Vectors="f_12"> 
<DataArray  type="Float64"  Name="f_12"  NumberOfComponents="3" format="ascii">5.6328422537511835e-01 4.5920262755631031e-01 5.7027249326684426e-01  5.5199849287846703e-01 3.9942754445168632e-01 5.8081216125594715e-01  5.6961113259826479e-01 4.8831936247990770e-01 5.6368624243525434e-01  5.1011733567030904e-01 2.8924887309432484e-01 4.8449100006117479e-01  5.6959401859310232e-01 4.8853106306982247e-01 5.6347549044519496e-01  5.6957527165811828e-01 4.8874854459838574e-01 5.6325603195794371e-01  5.6955665866492589e-01 4.8895480421112375e-01 5.6304585683901021e-01  5.6953817003660845e-01 4.8914997455122589e-01 5.6284483825305898e-01  5.6951932562864582e-01 4.8933909139071297e-01 5.6264776023661456e-01  5.6949969746584372e-01 4.8952610429948612e-01 5.6245039640772132e-01  5.6947991057070613e-01 4.8970554198193272e-01 5.6225868169894733e-01  5.6945959518054934e-01 4.8988078179720990e-01 5.6206899444345548e-01  5.6943891169919203e-01 4.9005060953649554e-01 5.6188270714638400e-01  5.6941798701523916e-01 4.9021399877556926e-01 5.6170095953137211e-01  5.6939646280213985e-01 4.9037403626367193e-01 5.6152038696010442e-01  5.6937549849348346e-01 4.9052081685904336e-01 5.6135181419951419e-01  5.6935398124718861e-01 4.9066434471196813e-01 5.6118445616230184e-01  5.6933172075956984e-01 4.9080619858834773e-01 5.6101657746954847e-01  5.6930964627493263e-01 4.9093853613065891e-01 5.6085677483075513e-01  5.6928747853194628e-01 4.9106401799829880e-01 5.6070222429889771e-01  5.6926505440410435e-01 4.9118381533699063e-01 5.6055158134928573e-01  5.6924192323068312e-01 4.9130190223528059e-01 5.6040053492227415e-01  5.6921813126576759e-01 4.9141794818653356e-01 5.6024946471039139e-01  5.6919543462596733e-01 4.9151738587096166e-01 5.6011443736479472e-01  5.6917260548437443e-01 4.9161044318249952e-01 5.5998418650297499e-01  5.6914854661458036e-01 4.9170641494016404e-01 5.5984851920655798e-01  5.6912433062737999e-01 4.9179639292745092e-01 5.5971725957319007e-01  5.6910057820938953e-01 4.9187537094760814e-01 5.5959597109649828e-01  5.6907656913809013e-01 4.9194930693126904e-01 5.5947808081988915e-01  5.6905222123194077e-01 4.9201881492295613e-01 5.5936288840678294e-01  5.6902761029754612e-01 4.9208313943196053e-01 5.5925118721130862e-01  5.6900312859252999e-01 4.9213967976154077e-01 5.5914604823458292e-01  5.6897804815127850e-01 4.9219392522979027e-01 5.5904124708567360e-01  5.6895267187336618e-01 4.9224345847377643e-01 5.5893947927204823e-01  5.6892808866295808e-01 4.9227955986319472e-01 5.5885046772416636e-01  5.6890325521392004e-01 4.9231085409973485e-01 5.5876467800876051e-01  5.6887757755055124e-01 4.9234184743205212e-01 5.5867701015221960e-01  5.6885159087265247e-01 4.9236821936507819e-01 5.5859226912402649e-01  5.6882558638956915e-01 4.9238777769825559e-01 5.5851294225977310e-01  5.6880000285436327e-01 4.9239688817749577e-01 5.5844304573393655e-01  5.6877227567851685e-01 4.9241581329466022e-01 5.5835988876591158e-01  5.6874792234323757e-01 4.9240117807347117e-01 5.5831211392951530e-01  5.6872106559496594e-01 4.9239891411505105e-01 5.5824812359864451e-01  5.6869446256570688e-01 4.9238771607710141e-01 5.5819192767944481e-01  5.6866763756268257e-01 4.9237104689085470e-01 5.5813955301539619e-01  5.6864051571935192e-01 4.9234938521199384e-01 5.5809042682473364e-01  5.6861337727488426e-01 4.9232061083866768e-01 5.5804695290282402e-01  5.6858593028321791e-01 4.9228685107262499e-01 5.5800668951531085e-01  5.6855824058618976e-01 4.9224754642936314e-01 5.5797024975388909e-01  5.6853069224082675e-01 4.9219977666697673e-01 5.5794094080015200e-01  5.6850249125679331e-01 4.9214937980854467e-01 5.5791208020796090e-01  5.6847442578988072e-01 4.9209036949111851e-01 5.5789045192802855e-01  5.6844606955815569e-01 4.9202589066110902e-01 5.5787245790777096e-01  5.6841777771269786e-01 4.9195309423858191e-01 5.5786127583647793e-01  5.6838860900910770e-01 4.9187930189176016e-01 5.5784866035611269e-01  5.6835896665829611e-01 4.9180080392270914e-01 5.5783860157779563e-01  5.6833036879820609e-01 4.9170665132277697e-01 5.5784369993805005e-01  5.6830082059652609e-01 4.9161160392689468e-01 5.5784709094330753e-01  5.6826984422953930e-01 4.9151898198573590e-01 5.5784490664450448e-01  5.6823892633887363e-01 4.9141722178514269e-01 5.5785016253002317e-01  5.6820885654843023e-01 4.9130073527126461e-01 5.5786932298479952e-01  5.6817819102602929e-01 4.9117993753536499e-01 5.5789039743704016e-01  5.6814702563229880e-01 4.9105411758936202e-01 5.5791419314304724e-01  5.6811528157347224e-01 4.9092381504440158e-01 5.5794007511867505e-01  5.6808364106324738e-01 4.9078340932397735e-01 5.5797426583711984e-01  5.6805060631739135e-01 4.9064492382646568e-01 5.5800334337431190e-01  5.6801881813457611e-01 4.9048693088701001e-01 5.5805114438770065e-01  5.6798539037366447e-01 4.9033180549133010e-01 5.5809244448792628e-01  5.6795123142612292e-01 4.9017269433276056e-01 5.5813502406236082e-01  5.6791721293621888e-01 4.9000213172612983e-01 5.5818706265998030e-01  5.6788385601113178e-01 4.8981644695590643e-01 5.5825280963672241e-01  5.6784913260956105e-01 4.8963120447035230e-01 5.5831466621879222e-01  5.6781280971358949e-01 4.8944729453535124e-01 5.5837132667526412e-01  5.6777663198065942e-01 4.8925124808377118e-01 5.5843798059264504e-01  5.6774088893100305e-01 4.8904115312918839e-01 5.5851688267621125e-01  5.6770408070190048e-01 4.8882795193830708e-01 5.5859547248092489e-01  5.6766654988571819e-01 4.8860869328026163e-01 5.5867697216469281e-01  5.6762837726370896e-01 4.8838245255870710e-01 5.5876231692732747e-01  5.6758994133118590e-01 4.8814658127474519e-01 5.5885457507951297e-01  5.6755048616465587e-01 4.8790614951508043e-01 5.5894776875211338e-01  5.6750985599528492e-01 4.8766214683229170e-01 5.5904070201667522e-01  5.6746923662334214e-01 4.8740492665075114e-01 5.5914408328490217e-01  5.6742845016368981e-01 4.8713638542375465e-01 5.5925593519007899e-01  5.6738630616811958e-01 4.8686449471746124e-01 5.5936685610096970e-01  5.6734350144277579e-01 4.8658394222974183e-01 5.5948284770191825e-01  5.6730023562247545e-01 4.8629341799270981e-01 5.5960545024621422e-01  5.6725524188275023e-01 4.8600192496645916e-01 5.5972424625046724e-01  5.6720983751914100e-01 4.8569781734790213e-01 5.5985186590036617e-01  5.6716439821733367e-01 4.8537953249255755e-01 5.5999049575487436e-01  5.6711745283938497e-01 4.8505740040588141e-01 5.6012813830410191e-01  5.6706956484172655e-01 4.8472669113764488e-01 5.6026998441269171e-01  5.6702058491440288e-01 4.8438850026446678e-01 5.6041476571568738e-01  5.6697032955666926e-01 4.8404334106240859e-01 5.6056159031774611e-01  5.6692010120993253e-01 4.8368041890132302e-01 5.6072235395270154e-01  5.6686804324821094e-01 4.8331519565299619e-01 5.6087999666410870e-01  5.6681494661661880e-01 4.8293924778415093e-01 5.6104321720707540e-01  5.6676089479388791e-01 4.8255336934773457e-01 5.6121158237627256e-01  5.6670494307466635e-01 4.8216275817439774e-01 5.6137851737568745e-01  5.6664874695089795e-01 4.8175501300420681e-01 5.6155809765973352e-01  5.6659096680723420e-01 4.8133957424909990e-01 5.6173936344944453e-01  5.6653137414576882e-01 4.8091869116648589e-01 5.6191992449484984e-01  5.6647123015909506e-01 4.8047956037350714e-01 5.6211314186410943e-01  5.6640931937774119e-01 4.8003440836441136e-01 5.6230618089599427e-01  5.6634546716586054e-01 4.7958201897848152e-01 5.6249952372205669e-01  5.6628089725110953e-01 4.7911260421179136e-01 5.6270404241201655e-01  5.6621444017763800e-01 4.7863435928060116e-01 5.6291020512106538e-01  5.6614634309252787e-01 4.7814548053368161e-01 5.6312004452216580e-01  5.6607645869827594e-01 4.7764659458363984e-01 5.6333265055383908e-01  5.6600480539026465e-01 4.7713601292180879e-01 5.6354937155777252e-01  5.6593165151226932e-01 4.7661158931398689e-01 5.6377255443867502e-01  5.6585597779115193e-01 4.7608134910641892e-01 5.6399319459658048e-01  5.6577904134203416e-01 4.7553227922289742e-01 5.6422476228534768e-01  5.6570052346041377e-01 4.7496766864820611e-01 5.6446379838564786e-01  5.6561933518245788e-01 4.7439709312547745e-01 5.6469989061071613e-01  5.6553551718676676e-01 4.7381714009670001e-01 5.6493578026699964e-01  5.6545007234924038e-01 4.7322011383157880e-01 5.6518008569963785e-01  5.6536227109025528e-01 4.7261076645381705e-01 5.6542711214736630e-01  5.6527158545097222e-01 4.7199201375033811e-01 5.6567313769792604e-01  5.6517858763321527e-01 4.7136014978922275e-01 5.6592251984285014e-01  5.6508388945786103e-01 4.7070246234183905e-01 5.6618672145807025e-01  5.6498685439052831e-01 4.7003256093208062e-01 5.6645340324018412e-01  5.6488596525484958e-01 4.6935914069077439e-01 5.6671167734889005e-01  5.6478161986971742e-01 4.6867640176587733e-01 5.6696707789580891e-01  5.6467570482279683e-01 4.6796609446582810e-01 5.6723872960537003e-01  5.6456688539007571e-01 4.6724279069749675e-01 5.6751169052728767e-01  5.6445431876017949e-01 4.6650932180176719e-01 5.6778142440396506e-01  5.6433886787023935e-01 4.6575634595138443e-01 5.6805741339316973e-01  5.6421978318664512e-01 4.6499308403141576e-01 5.6833041246782501e-01  5.6409725964076585e-01 4.6421416184487746e-01 5.6860501333598357e-01  5.6397147320558738e-01 4.6341697613199989e-01 5.6888361332880599e-01  5.6384189362192638e-01 4.6260542965817358e-01 5.6916166753484276e-01  5.6370847608381314e-01 4.6177904481660370e-01 5.6943932297733912e-01  5.6357103783530949e-01 4.6093760648744792e-01 5.6971614160511241e-01  5.6342967190415794e-01 4.6007884579799313e-01 5.6999400884517415e-01  5.6313451198424169e-01 4.5830956384994104e-01 5.7055048880619619e-01  5.6298034671505148e-01 4.5740078724836952e-01 5.7082649879228886e-01  5.6282175361102127e-01 4.5647316729451504e-01 5.7110283576851761e-01  5.6265836364906863e-01 4.5553053490623119e-01 5.7137542622352377e-01  5.6249007503530679e-01 4.5457096549486914e-01 5.7164530638395405e-01  5.6231701298252545e-01 4.5359290224575605e-01 5.7191384987038962e-01  5.6213854821635334e-01 4.5260063390961935e-01 5.7217588849459733e-01  5.6195471832058019e-01 4.5159316537701250e-01 5.7243212073110650e-01  5.6176560190947533e-01 4.5056400716053896e-01 5.7268748741776332e-01  5.6157040717071360e-01 4.4952461457828835e-01 5.7293095708620778e-01  5.6137081174810577e-01 4.4844967235061567e-01 5.7318608938683746e-01  5.6116525984235466e-01 4.4736579019112233e-01 5.7342830985459070e-01  5.6095281523120599e-01 4.4626926701927017e-01 5.7365751611593641e-01  5.6073469501336581e-01 4.4515024681048976e-01 5.7388434686074441e-01  5.6051037904640921e-01 4.4401362882590711e-01 5.7410341252485397e-01  5.6027892346594732e-01 4.4286747925839198e-01 5.7430570988630147e-01  5.6004139562953392e-01 4.4169389336604264e-01 5.7450750567263598e-01  5.5979705014747483e-01 4.4050519219906187e-01 5.7469714558693996e-01  5.5954575767481818e-01 4.3929866045067528e-01 5.7487599709680282e-01  5.5928738407078726e-01 4.3807946711132273e-01 5.7503957402208439e-01  5.5902144912648866e-01 4.3684325165618898e-01 5.7518943039564252e-01  5.5874925322247981e-01 4.3557790870403656e-01 5.7533801531027506e-01  5.5846917832833853e-01 4.3429984089481510e-01 5.7546812518792800e-01  5.5818150327601357e-01 4.3300608552196390e-01 5.7558244457520857e-01  5.5788567901665531e-01 4.3169931849985227e-01 5.7567704745531090e-01  5.5758223162708831e-01 4.3037289196706324e-01 5.7575803353421895e-01  5.5727044735728937e-01 4.2903573904073206e-01 5.7581632685364625e-01  5.5695103685773173e-01 4.2767236806012843e-01 5.7586509299677147e-01  5.5662380301527448e-01 4.2629437174917673e-01 5.7589484100973343e-01  5.5628737310547649e-01 4.2491046501379021e-01 5.7589464805531621e-01  5.5594254940438970e-01 4.2350643693996953e-01 5.7587694354557251e-01  5.5559041483947869e-01 4.2208018943869646e-01 5.7584608608361654e-01  5.5522884869473688e-01 4.2064577776738216e-01 5.7578496795847733e-01  5.5485883031080119e-01 4.1919478351097633e-01 5.7570226712236983e-01  5.5448041028709716e-01 4.1772957526429855e-01 5.7559594757084243e-01  5.5409316972913025e-01 4.1625201428248665e-01 5.7546293365407120e-01  5.5369633691441744e-01 4.1476741618004864e-01 5.7529654814439735e-01  5.5329165623201582e-01 4.1325933113371949e-01 5.7511350474341327e-01  5.5287807966939428e-01 4.1174645740725663e-01 5.7489669976117097e-01  5.5245515913629695e-01 4.1022095964484212e-01 5.7464983433685080e-01  5.5202464603238632e-01 4.0867750827828236e-01 5.7438171679925898e-01  5.5158477365040126e-01 4.0712776209593343e-01 5.7407797331751731e-01  5.5113546746766018e-01 4.0557285041940061e-01 5.7373690991191217e-01  5.5067895552512491e-01 4.0400088347455904e-01 5.7337381960848266e-01  5.5021256574711541e-01 4.0242694957454800e-01 5.7296875118050350e-01  5.4973863673764434e-01 4.0083609367628820e-01 5.7253936647465431e-01  5.4925659254767345e-01 3.9924199017415335e-01 5.7207367139317122e-01  5.4876486223730991e-01 3.9764484218927570e-01 5.7156586855401526e-01  5.4826639526944643e-01 3.9603436214967253e-01 5.7103236646801103e-01  5.4775954023279583e-01 3.9442062312346676e-01 5.7046015265521088e-01  5.4724580912020337e-01 3.9279432980471862e-01 5.6986030428257994e-01  5.4672427447210714e-01 3.9116960228965303e-01 5.6921943715714129e-01  5.4619353844306562e-01 3.8954782361275131e-01 5.6853119710227218e-01  5.4565738498546379e-01 3.8791153476755363e-01 5.6782031056846438e-01  5.4511503399081784e-01 3.8627356117698392e-01 5.6707474191610419e-01  5.4456406039889416e-01 3.8463794764678100e-01 5.6628292627780885e-01  5.4400862308253661e-01 3.8299416458769803e-01 5.6546608335657533e-01  5.4344694294225127e-01 3.8135060909867746e-01 5.6461189783397137e-01  5.4287898262787759e-01 3.7970907091447986e-01 5.6371861156597247e-01  5.4230462062945450e-01 3.7807107756795555e-01 5.6278436679586519e-01  5.4172621317876202e-01 3.7642605786036809e-01 5.6182449429555148e-01  5.4114457901408508e-01 3.7477868456428798e-01 5.6083850168709248e-01  5.4055799062104015e-01 3.7313568491974269e-01 5.5981530081072384e-01  5.3996656071764892e-01 3.7149856683802207e-01 5.5875398478536864e-01  5.3937180735463808e-01 3.6986190987171236e-01 5.5766357935734623e-01  5.3877391136872277e-01 3.6822746909177850e-01 5.5654337356376216e-01  5.3817388439895508e-01 3.6659515921269309e-01 5.5539704996455053e-01  5.3757121635392269e-01 3.6496801184017957e-01 5.5422053909331481e-01  5.3696514724130584e-01 3.6334900308899920e-01 5.5300882483249769e-01  5.3635968134573953e-01 3.6172700031260530e-01 5.5178450644959276e-01  5.3575509750412897e-01 3.6010815337514807e-01 5.5054471509707448e-01  5.3514761817892742e-01 3.5850138177915508e-01 5.4926884775671425e-01  5.3453774570175028e-01 3.5690277657406416e-01 5.4796143831807409e-01  5.3393030631988214e-01 3.5530590636014919e-01 5.4664557427562377e-01  5.3332520028358377e-01 3.5371481061809168e-01 5.4531842072758074e-01  5.3271989595531344e-01 3.5213280838185584e-01 5.4396794749487754e-01  5.3211655055747009e-01 3.5055743787474691e-01 5.4260447221007502e-01  5.3151520721569678e-01 3.4898996045435837e-01 5.4122754303817999e-01  5.3091671283058173e-01 3.4743065005440760e-01 5.3984063447642261e-01  5.3032170185453809e-01 3.4587940423571689e-01 5.3844665281029214e-01  5.2972965126291549e-01 3.4433821431046063e-01 5.3704246913864850e-01  5.2914109591329861e-01 3.4280675837551955e-01 5.3563078355934801e-01  5.2855685249081130e-01 3.4128523737285177e-01 5.3421515384643314e-01  5.2797726642112897e-01 3.3977383939315797e-01 5.3279727359837858e-01  5.2740280136685769e-01 3.3827328960793057e-01 5.3137898342015666e-01  5.2683376394365289e-01 3.3678376210624927e-01 5.2996188942463240e-01  5.2627053994492645e-01 3.3530594884356651e-01 5.2854759272839291e-01  5.2571336650944533e-01 3.3384031169424899e-01 5.2713725899402630e-01  5.2516273008456815e-01 3.3238716121691925e-01 5.2573322643941256e-01  5.2461901297555047e-01 3.3094703424898242e-01 5.2433727523173390e-01  5.2408239566518178e-01 3.2952050485455775e-01 5.2295031924586088e-01  5.2355329591983257e-01 3.2810797544677023e-01 5.2157442195587134e-01  5.2303172194363035e-01 3.2671007662725804e-01 5.2020973867196818e-01  5.2251810341108318e-01 3.2532726717088079e-01 5.1885837029884496e-01  5.2201264108138190e-01 3.2395995805040595e-01 5.1752147872121224e-01  5.2151550401213653e-01 3.2260889797883918e-01 5.1619985645525568e-01  5.2102721440068234e-01 3.2127457936423093e-01 5.1489603890564284e-01  5.2054872002719244e-01 3.1995747074687886e-01 5.1361454846346910e-01  5.2007819378008935e-01 3.1865827219647114e-01 5.1234730829555519e-01  5.1961501546043709e-01 3.1737622935322601e-01 5.1109260033991033e-01  5.1916206923440011e-01 3.1611309020490841e-01 5.0986266907659838e-01  5.1871868333388671e-01 3.1486938173461415e-01 5.0865472941535472e-01  5.1828676228572257e-01 3.1364664075765664e-01 5.0747699024415904e-01  5.1786225955819831e-01 3.1244318134238985e-01 5.0631274218545974e-01  5.1744113786304613e-01 3.1125536495150097e-01 5.0514656084400378e-01  5.1704354006645381e-01 3.1009868114164590e-01 5.0406033207593492e-01  5.1665027177512624e-01 3.0896055055339988e-01 5.0297572554395642e-01  5.1626764905094857e-01 3.0784497831861329e-01 5.0191926679418986e-01  5.1589129961906977e-01 3.0675013773378029e-01 5.0087246871144597e-01  5.1552332221636077e-01 3.0567625002854576e-01 4.9984532300009277e-01  5.1517086893137132e-01 3.0463105357594372e-01 4.9886636324204192e-01  5.1482665622429702e-01 3.0360875394196035e-01 4.9790613659487815e-01  5.1449073666377432e-01 3.0260941648733675e-01 4.9696521179106651e-01  5.1416608027472666e-01 3.0163630658287149e-01 4.9605576860509282e-01  5.1385153571025100e-01 3.0068887604731964e-01 4.9517322065094904e-01  5.1354606450825213e-01 2.9976647366839310e-01 4.9431349885669479e-01  5.1325163020139741e-01 2.9887161469167911e-01 4.9348464930815183e-01  5.1296594002326390e-01 2.9800250336961676e-01 4.9267733389020296e-01  5.1268753118541599e-01 2.9715650137388011e-01 4.9188676762062955e-01  5.1242537322635306e-01 2.9634593473449061e-01 4.9114780967410437e-01  5.1216392155100232e-01 2.9555168348498151e-01 4.9039924700402571e-01  5.1192351936586666e-01 2.9480058414084342e-01 4.8972110007708625e-01  5.1168449634363977e-01 2.9406668604818015e-01 4.8903653034079519e-01  5.1145589790932733e-01 2.9336222322344108e-01 4.8838108949240139e-01  5.1123566742303006e-01 2.9268506835242963e-01 4.8774657552231027e-01  5.1102701493096614e-01 2.9203966390439684e-01 4.8714589276064069e-01  5.1082151281630139e-01 2.9141455107121578e-01 4.8654598218168055e-01  5.1063997961124452e-01 2.9084075434144824e-01 4.8602770786816690e-01  5.1045621072050618e-01 2.9027975919054455e-01 4.8548949997447338e-01  5.1028342603960442e-01 2.8975082157742976e-01 4.8498303846088009e-01  5.0996367008663113e-01 2.8878135544060451e-01 4.8403662032432926e-01  5.0981560056957176e-01 2.8833927849367652e-01 4.8359270312932640e-01  5.0967708712721060e-01 2.8792880543098065e-01 4.8317469432428600e-01  5.0954977869917617e-01 2.8755279442018611e-01 4.8278898748357202e-01  5.0943285798244575e-01 2.8720979785711942e-01 4.8243271022567602e-01  5.0931600362601781e-01 2.8688292040675639e-01 4.8206637668346730e-01  5.0921669892220034e-01 2.8660248028561802e-01 4.8175612336859375e-01  5.0911680563207806e-01 2.8633740278480913e-01 4.8143330536604906e-01  5.0903255268008363e-01 2.8611472499555840e-01 4.8116010350081939e-01  5.0895426822294831e-01 2.8591868734681025e-01 4.8089933527862172e-01  5.0888365230190513e-01 2.8575222266702138e-01 4.8065756545971350e-01  5.0882206820370535e-01 2.8561805193236761e-01 4.8043979263245712e-01  5.0876894773586179e-01 2.8551463203572530e-01 4.8024429405952374e-01  5.0872228002277153e-01 2.8543930754030888e-01 4.8006295117576225e-01  5.0868282316287849e-01 2.8539302515137105e-01 4.7989891878734819e-01  5.0865398181929244e-01 2.8538145612489552e-01 4.7976532236074482e-01  5.0863127084250626e-01 2.8539714741036032e-01 4.7964492882675047e-01  5.0861855377820320e-01 2.8544675713575518e-01 4.7955248863027589e-01  5.0861729827924207e-01 2.8553231095284198e-01 4.7949390562556155e-01  5.0861760257524824e-01 2.8563752377664914e-01 4.7943095720126783e-01  5.0862709057