<?xml version="1.0"?>
<VTKFile type="UnstructuredGrid"  version="0.1"  >
<UnstructuredGrid>
<Piece  NumberOfPoints="4940" NumberOfCells="9650">
<Points>
<DataArray  type="Float64"  NumberOfComponents="3"  format="ascii">500 250 0  0 250 0  250 500 0  250 0 0  256.8885856082646 499.9050767557906 0  263.7719401218049 499.6203791065173 0  270.6448364229772 499.1461232471188 0  277.5020553257866 498.4826693209355 0  284.3383895508592 497.6305211460281 0  291.1486476865662 496.5903258312597 0  297.9276581259182 495.3628732847843 0  304.6702729675493 493.9490956196674 0  311.3713719748657 492.3500664368026 0  318.0258664141369 490.5670000199653 0  324.6287029687753 488.6012504015818 0  331.1748675330201 486.4543103455647 0  337.6593890460416 484.1278102064655 0  344.0773432429536 481.6235166997244 0  350.4238564271474 478.9433315480048 0  356.694109139292 476.0892900492477 0  362.88333985546 473.0635595140469 0  368.9868485575419 469.8684376402048 0  375.0000003153078 466.5063507640667 0  380.9182288257928 462.9798520074548 0  386.7370398729688 459.2916193419558 0  392.4520147244077 455.444453565817 0  398.0588135356345 451.4412761437442 0  403.5531785622926 447.285127045646 0  408.9309374414144 442.9791624087773 0  414.1880064015299 438.5266521049243 0  419.3203932989752 433.9309773069245 0  424.324200661095 429.1956279150535 0  429.1956286596235 424.3241998957182 0  433.9309780058756 419.3203925397119 0  438.5266527445345 414.1880056671062 0  442.9791630130591 408.9309367076756 0  447.2851276060475 403.5531778422888 0  451.4412766621026 398.0588128303826 0  455.4444540361634 392.4520140460735 0  459.2916197786263 386.7370392045948 0  462.9798524073514 380.9182281752347 0  466.5063511234856 374.9999996927758 0  469.8684379657123 368.9868479560565 0  473.0635598144817 362.8833392617846 0  476.0892903190255 356.6941085676214 0  478.9433317963513 350.4238558609745 0  481.6235169154735 344.0773427117675 0  484.12781039012 337.6593885555221 0  486.4543105028062 331.1748670749914 0  488.601250531677 324.6287025528375 0  490.5670001317469 318.0258660188321 0  492.3500665291326 311.3713716102628 0  493.949095695951 304.6702726271575 0  495.3628733416623 297.9276578347343 0  496.5903258712341 291.1486474470129 0  497.6305211749058 284.3383893426084 0  498.4826693388848 277.502055163614 0  499.1461232580606 270.6448362909296 0  499.6203791109319 263.7719400417897 0  499.9050767571306 256.8885855596534 0  499.9050767559877 243.1114143988867 0  499.6203791069493 236.2280598860241 0  499.1461232485393 229.3551635941651 0  498.4826693235677 222.4979446979962 0  497.6305211491849 215.6616104719064 0  496.5903258357701 208.8513523404629 0  495.3628732906988 202.0723419043604 0  493.9490956264813 195.3297270628552 0  492.3500664487791 188.6286280724281 0  490.5670000344809 181.9741336371959 0  488.6012504175981 175.3712970824318 0  486.4543103623226 168.8251325157939 0  484.1278102222298 162.3406109960628 0  481.6235167152198 155.9226567951971 0  478.9433315621651 149.5761436051346 0  476.0892900516498 143.3058908657982 0  473.063559513628 137.1166601437124 0  469.8684376406648 131.0131514433083 0  466.5063507675389 124.9999996907064 0  462.9798520124137 119.0817711822745 0  459.2916193464549 113.2629601339176 0  455.4444535642773 107.5479852733717 0  451.4412761528674 101.9411864767781 0  447.2851270583545 96.44682145403524 0  442.9791624165781 91.06906256805769 0  438.5266521117469 85.81199360630404 0  433.9309773156125 80.67960671046254 0  429.1956279150353 75.67579933888632 0  424.3241998888952 70.80437133373906 0  419.3203925223282 66.06902197812161 0  414.1880056411937 61.47334723289828 0  408.9309366751728 57.0208369601728 0  403.5531778009394 52.71487236176898 0  398.058812796452 48.55872331295853 0  392.4520140187753 44.55554594490843 0  386.7370391799677 40.70838020528396 0  380.9182281475119 37.02014757560744 0  374.9999996718656 33.49364886444181 0  368.9868479340393 30.13156202237255 0  362.8833392380029 26.93644017348339 0  356.6941085456942 23.91070967062674 0  350.4238558420009 21.0566681953261 0  344.0773426899492 18.37648307566465 0  337.6593885328982 15.87218960140942 0  331.1748670549786 13.54568949032341 0  324.6287025315056 11.39874946165088 0  318.0258660010876 9.432999863235466 0  311.3713716017894 7.649933468721599 0  304.6702726190621 6.050904302234756 0  297.9276578269805 4.637126656823085 0  291.148647441857 3.409674127905504 0  284.3383893425031 2.369478825079682 0  277.502055159398 1.517330660648639 0  270.6448362875833 0.853876741662134 0  263.7719400401456 0.3796208889774277 0  256.8885855592052 0.09492324285704967 0  243.1114143979462 0.09492324403817065 0  236.2280598850882 0.3796208931023841 0  229.3551635938215 0.8538767514891958 0  222.4979446968584 1.517330676558146 0  215.6616104703111 2.369478851036291 0  208.8513523382973 3.409674164591252 0  202.0723419066374 4.637126708856528 0  195.3297270659513 6.050904372824903 0  188.628628074828 7.649933550613184 0  181.9741336377093 9.432999965373938 0  175.3712970793675 11.39874958336037 0  168.8251325057572 13.54568964112298 0  162.340610986655 15.87218978129263 0  155.9226567874317 18.37648328793418 0  149.576143602509 21.05666843898663 0  143.3058908718157 23.91070994551046 0  137.1166601505524 26.93644048291054 0  131.0131514451933 30.13156235831508 0  124.9999996848412 33.49364923584736 0  119.0817711715717 37.0201479941652 0  113.2629601211624 40.70838066187849 0  107.5479852622251 44.55554644345162 0  101.9411864693332 48.55872385260452 0  96.44682143286516 52.71487295812284 0  91.06906254351222 57.02083760363669 0  85.81199358272519 61.4733479087879 0  80.67960667988106 66.06902271253972 0  75.67579930062769 70.80437212218331 0  70.80437129287643 75.67580015310926 0  66.06902193673014 80.67960752263491 0  61.47334718684866 85.81199441168215 0  57.02083692524275 91.0690633672404 0  52.71487232786438 96.44682224262129 0  48.55872328070024 101.941187247437 0  44.55554591578033 107.5479860232332 0  40.7083801742321 113.2629608675606 0  37.02014754791168 119.0817718975441 0  33.49364883372994 125.000000381329 0  30.13156199866361 131.0131521097709 0  26.9364401549829 137.1166607985551 0  23.91070965524918 143.3058914868915 0  21.05666818346614 149.576144185037 0  18.37648306853811 155.9226573275967 0  15.8721895918909 162.3406114925245 0  13.54568948170046 168.8251329701392 0  11.39874945301878 175.3712974960928 0  9.432999857087736 181.9741340206533 0  7.649933466342702 188.6286284076045 0  6.050904301250966 195.3297273853278 0  4.637126656808988 202.0723421730917 0  3.409674127767772 208.8513525589684 0  2.369478824521138 215.6616106615248 0  1.517330660909465 222.4979448382452 0  0.8538767414496533 229.355163714981 0  0.3796208887135322 236.2280599646376 0  0.09492324266324204 243.1114144478261 0  0.0949232442452228 256.8885856095658 0  0.3796208935834784 263.7719401236316 0  0.8538767530323526 270.6448364248016 0  1.517330679476544 277.5020553295092 0  2.369478854618649 284.3383895555228 0  3.409674170191892 291.1486476952655 0  4.6371267162381 297.9276581311522 0  6.050904381420935 304.6702729724059 0  7.649933562385399 311.3713719716595 0  9.43299997979841 318.0258664133013 0  11.3987495994252 324.6287029719946 0  13.54568965885832 331.174867545904 0  15.87218979367188 337.6593890464085 0  18.37648329843151 344.0773432384132 0  21.05666844777872 350.423856417535 0  23.91070995156048 356.6941091410045 0  26.93644048988043 362.8833398632205 0  30.13156235982007 368.9868485575877 0  33.49364924138357 375.0000003247478 0  37.0201480006036 380.9182288389023 0  40.70838066758398 386.7370398875706 0  44.55554644477201 392.4520147396792 0  48.55872386086904 398.0588135419111 0  52.71487295981296 403.5531785693063 0  57.02083760525949 408.9309374584583 0  61.47334790862246 414.1880064170849 0  66.06902271205095 419.320393319588 0  70.80437211216579 424.3242006890749 0  75.67580013809859 429.195628692521 0  80.6796075127923 433.930978054209 0  85.81199439754931 438.5266528008431 0  91.06906334717917 442.9791630582355 0  96.44682221438322 447.2851276501571 0  101.9411872243843 451.441276702356 0  107.5479859945825 455.4444540643537 0  113.2629608446994 459.2916198108319 0  119.0817718768376 462.9798524393601 0  125.0000003647644 466.5063511567065 0  131.0131521012763 469.8684379967393 0  137.1166607840049 473.0635598376539 0  143.3058914748804 476.0892903390826 0  149.5761441732679 478.9433318113714 0  155.9226573130112 481.6235169255377 0  162.3406114779862 484.1278104026658 0  168.8251329570439 486.4543105138039 0  175.3712974805475 488.601250542119 0  181.9741340135204 490.5670001408953 0  188.6286284005059 492.3500665318597 0  195.3297273788229 493.9490956972913 0  202.0723421640089 495.3628733414168 0  208.8513525529672 496.5903258712308 0  215.6616106544547 497.6305211744985 0  222.4979448327038 498.4826693384772 0  229.3551637102845 499.1461232581612 0  236.2280599621369 499.6203791111485 0  243.1114144470173 499.9050767573145 0  155.2373389820306 474.8197567317462 0  25.36256300907667 153.9152755065208 0  432.3709625126712 412.6214396304305 0  6.013151705810699 246.637913163471 0  246.6379131630491 493.986848294322 0  338.6995838441862 22.68244767887072 0  477.3175523131281 338.6995838660569 0  493.9868482700757 246.6379131399102 0  246.6201155078769 6.218451882810491 0  417.6179310263282 72.7156044707053 0  102.2232990934413 445.0100869616822 0  63.66330858966404 92.20354579482142 0  391.3105220491464 50.73522820883105 0  72.79295043967942 418.0702734974704 0  448.290574428537 108.25674339002 0  402.4604651193511 440.7462829841712 0  97.55317348421397 59.11376320116034 0  136.7376477664901 33.58246472647134 0  363.3288394375288 465.6947312928271 0  44.0678766556007 381.0860953771871 0  469.6905266180034 142.3890690100806 0  22.68244791668644 338.6995843487432 0  338.699584349159 477.317552078365 0  173.389488083762 18.6681884918202 0  483.4809734778481 179.7121987795732 0  13.50237455842738 306.4709525540879 0  305.9825168523021 487.24416992
[...]
<PointData  Vectors="f_12"> 
<DataArray  type="Float64"  Name="f_12"  NumberOfComponents="3" format="ascii">5.7741196988982912e-01 4.3386637226525898e-01 6.2323745019487553e-01  5.6886108727327955e-01 3.2677057026997136e-01 6.7387936443354624e-01  5.7502595392284861e-01 4.7530101954619225e-01 5.8656380347715908e-01  5.7559448449281869e-01 4.1944273653424968e-01 6.2960263462782651e-01  5.7496079249591114e-01 4.7584957880684992e-01 5.8598754992588897e-01  5.7490024093243486e-01 4.7635105288709373e-01 5.8545811383401869e-01  5.7484208861127428e-01 4.7682556719517610e-01 5.8495484470423664e-01  5.7478825547558088e-01 4.7725897607022827e-01 5.8449323586293145e-01  5.7473807295466262e-01 4.7765776075583838e-01 5.8406677213667235e-01  5.7469175609836831e-01 4.7802166897818688e-01 5.8367619045228625e-01  5.7464937027758589e-01 4.7835121407541253e-01 5.8332130639433810e-01  5.7461082280984088e-01 4.7864803406304668e-01 5.8300066980455223e-01  5.7457640202928262e-01 4.7891077349849298e-01 5.8271604219372308e-01  5.7454635887619365e-01 4.7913828030386568e-01 5.8246895401654708e-01  5.7452226402895057e-01 4.7931944714360264e-01 5.8227173767221474e-01  5.7449919081714529e-01 4.7949207058357335e-01 5.8208350629384387e-01  5.7448506722674131e-01 4.7959684687479354e-01 5.8196895469002430e-01  5.7447272229122592e-01 4.7968809840076226e-01 5.8186906777218239e-01  5.7446559304964018e-01 4.7974022942892114e-01 5.8181181011168404e-01  5.7446282555329020e-01 4.7975985227819068e-01 5.8179004701246773e-01  5.7446419811841298e-01 4.7974870836561767e-01 5.8180189897407786e-01  5.7447187726092341e-01 4.7969039785709028e-01 5.8186520989252533e-01  5.7448449264893486e-01 4.7959507078293628e-01 5.8196886306841744e-01  5.7450006417954491e-01 4.7947737254950495e-01 5.8209680519331319e-01  5.7452064344451903e-01 4.7932152564489383e-01 5.8226610875244122e-01  5.7454711560566885e-01 4.7912014129359864e-01 5.8248455722571835e-01  5.7457965964015922e-01 4.7887122164032714e-01 5.8275408866318534e-01  5.7461499639954083e-01 4.7859900188345372e-01 5.8304815736332227e-01  5.7465502200361485e-01 4.7828805583226081e-01 5.8338314830575277e-01  5.7470173928386148e-01 4.7792164899579365e-01 5.8377668701220864e-01  5.7475175590849259e-01 4.7752494302991599e-01 5.8420125345285345e-01  5.7480701693205238e-01 4.7708104603585638e-01 5.8467442425762051e-01  5.7486704825074708e-01 4.7659226226844004e-01 5.8519325430291824e-01  5.7493074795584453e-01 4.7606574574517202e-01 5.8574952395456847e-01  5.7500078023882228e-01 4.7547698798972632e-01 5.8636833325727511e-01  5.7507472693886308e-01 4.7484379654079817e-01 5.8703017946350056e-01  5.7515154734662488e-01 4.7417297378079415e-01 5.8772724317644442e-01  5.7523400453379647e-01 4.7343695239087158e-01 5.8848715237781524e-01  5.7532194335799014e-01 4.7263277961894973e-01 5.8931166859448469e-01  5.7541251487015599e-01 4.7178302488323537e-01 5.9017658703687492e-01  5.7550545550851107e-01 4.7088655943275354e-01 5.9108202819310074e-01  5.7560308316054698e-01 4.6991608325288498e-01 5.9205420905634065e-01  5.7570492214063762e-01 4.6887063339375074e-01 5.9309251868400148e-01  5.7580883388252635e-01 4.6776453364861836e-01 5.9418079658926481e-01  5.7591580897063988e-01 4.6658089192051660e-01 5.9533400564338412e-01  5.7602493465654214e-01 4.6532244841993770e-01 5.9654766339401188e-01  5.7613553294675324e-01 4.6398750682579282e-01 5.9782117673300594e-01  5.7624690279306956e-01 4.6257457393048163e-01 5.9915384343981648e-01  5.7636044818319099e-01 4.6105237637555918e-01 6.0057211622375106e-01  5.7647325664805027e-01 4.5944843842112049e-01 6.0204808601704107e-01  5.7658518060878916e-01 4.5774507402789272e-01 6.0359429617644567e-01  5.7669553900085591e-01 4.5594094191789203e-01 6.0520966760330686e-01  5.7680313708918918e-01 4.5402928504608780e-01 6.0689604433669353e-01  5.7690776978139835e-01 4.5199037143029414e-01 6.0866705770095286e-01  5.7700730703948921e-01 4.4983406400303450e-01 6.1050961986030328e-01  5.7710023726396031e-01 4.4755639333581099e-01 6.1242254598463230e-01  5.7718589663796183e-01 4.4513410160260442e-01 6.1442050119245895e-01  5.7726206040087413e-01 4.4257067637713182e-01 6.1649503899652647e-01  5.7732715921431188e-01 4.3986653831236072e-01 6.1864026360709323e-01  5.7737952895521250e-01 4.3703406058099936e-01 6.2084449833213029e-01  5.7743119059964332e-01 4.3068547975429283e-01 6.2559833708391521e-01  5.7742689127840741e-01 4.2727555710032777e-01 6.2806077398213556e-01  5.7739767294968625e-01 4.2367006087552056e-01 6.3059412142147275e-01  5.7734074190370588e-01 4.1982979096414208e-01 6.3321560042111391e-01  5.7725066967293392e-01 4.1576888017322428e-01 6.3590212654956924e-01  5.7712526498518979e-01 4.1148146435817845e-01 6.3864631227030066e-01  5.7695667178172216e-01 4.0693444231895143e-01 6.4145139817074304e-01  5.7674125150911104e-01 4.0212473219501754e-01 6.4430441556639839e-01  5.7647303698484165e-01 3.9704669029019030e-01 6.4719042394360271e-01  5.7614539423791744e-01 3.9168740273750929e-01 6.5009657017276212e-01  5.7574898563302601e-01 3.8599896552375418e-01 6.5302381204641546e-01  5.7527972705322394e-01 3.8002677377373695e-01 6.5592525574167537e-01  5.7472703616443788e-01 3.7371764037870864e-01 6.5879934688087316e-01  5.7408072273624022e-01 3.6706196999432217e-01 6.6161601812625492e-01  5.7333250105843503e-01 3.6006242761168661e-01 6.6433821438429863e-01  5.7247256670254520e-01 3.5272112019504742e-01 6.6692592097518921e-01  5.7149190596803057e-01 3.4504026106789443e-01 6.6933515937148480e-01  5.7037888455293384e-01 3.3701938761418565e-01 6.7151714575272015e-01  5.6912305217590309e-01 3.2866326480802061e-01 6.7341804164033991e-01  5.6771870147763215e-01 3.2000879467539273e-01 6.7497333156300454e-01  5.6616740098601914e-01 3.1112984944508087e-01 6.7611550221844408e-01  5.6444139883841160e-01 3.0196506148851920e-01 6.7677427636652809e-01  5.6255230581150129e-01 2.9262699455931823e-01 6.7688293401327448e-01  5.6050171133549231e-01 2.8317886110413298e-01 6.7637632559282868e-01  5.5828974608761084e-01 2.7367915074688087e-01 6.7518649701408118e-01  5.5592658431964959e-01 2.6421462204652435e-01 6.7326274982176348e-01  5.5342324358381789e-01 2.5486360432440025e-01 6.7056464752278944e-01  5.5079571401741156e-01 2.4571117085958571e-01 6.6707287026937456e-01  5.4806035400462572e-01 2.3682641316587905e-01 6.6277376972981483e-01  5.4523596407653230e-01 2.2828604811010511e-01 6.5767870722224697e-01  5.4234691931027157e-01 2.2015933061518467e-01 6.5181872086152370e-01  5.3941749928944915e-01 2.1250419266049780e-01 6.4524410073635807e-01  5.3648185549900929e-01 2.0539345306345189e-01 6.3805045337571886e-01  5.3353638357394029e-01 1.9879738340849079e-01 6.3023858063609073e-01  5.3061442015709870e-01 1.9276442236246108e-01 6.2192758623280220e-01  5.2778901341513407e-01 1.8740389286067169e-01 6.1337391407151531e-01  5.2506456729939988e-01 1.8266775140658212e-01 6.0464623452252797e-01  5.2246297673675424e-01 1.7854064196142672e-01 5.9587994239808628e-01  5.2010455904110908e-01 1.7513006296930050e-01 5.8757364408983914e-01  5.1801065227413423e-01 1.7237978119477884e-01 5.7990593849137517e-01  5.1617565258744758e-01 1.7019522356751970e-01 5.7295771386503513e-01  5.1481388011356699e-01 1.6871264311715323e-01 5.6766447852721214e-01  5.1394061950136394e-01 1.6783524282499762e-01 5.6420480001326501e-01  5.1370484852488796e-01 1.6764627272281585e-01 5.6324897649714456e-01  5.1420818389818435e-01 1.6823203920834900e-01 5.6522911407698895e-01  5.1561289474785399e-01 1.6985547136908336e-01 5.7070109442045069e-01  5.1803845504292878e-01 1.7291920002267522e-01 5.7986635723141455e-01  5.2160888990432541e-01 1.7805696833416862e-01 5.9269117970925445e-01  5.2649398890634158e-01 1.8628759987066631e-01 6.0896159736826638e-01  5.3269735575022092e-01 1.9872990037170107e-01 6.2740060474605663e-01  5.4003413900689778e-01 2.1644879493812147e-01 6.4593300280386190e-01  5.4808176800167840e-01 2.4026408336415567e-01 6.6159874802491736e-01  5.5623683682415592e-01 2.7022753927615850e-01 6.7149645798830382e-01  5.6375561108105121e-01 3.0556038435695737e-01 6.7338167487506329e-01  5.6981222708662305e-01 3.4400948810679904e-01 6.6617928394466386e-01  5.7385050271867544e-01 3.8298487163179640e-01 6.5086111785672274e-01  5.7502866957437937e-01 4.4993761977968816e-01 6.0595011914413333e-01  5.7327321221714533e-01 4.7735353283426940e-01 5.8091810841359681e-01  5.7014878928869617e-01 4.9581414920193234e-01 5.5878658993841845e-01  5.6687270864164252e-01 5.0860817381767987e-01 5.4040044831972622e-01  5.6393301141696228e-01 5.1679728262799240e-01 5.2618035671757113e-01  5.6173998909880229e-01 5.2136727587141862e-01 5.1662218498454238e-01  5.6047450772809160e-01 5.2353175292294185e-01 5.1141251028767576e-01  5.6026988144176226e-01 5.2385440466391830e-01 5.1058779241956664e-01  5.6110176885151053e-01 5.2251816208357538e-01 5.1395404234656861e-01  5.6286681341922806e-01 5.1923588076514970e-01 5.2137995092477707e-01  5.6545118524159999e-01 5.1309224536730935e-01 5.3314140905824303e-01  5.6849298679388083e-01 5.0315279498186138e-01 5.4885321941724885e-01  5.7155893239306488e-01 4.8854833315024765e-01 5.6797841170275531e-01  5.7413016882387069e-01 4.6881929238376407e-01 5.8945871362064062e-01  5.7566337410796586e-01 4.4356540061776456e-01 6.1214478832688268e-01  5.7569295190562186e-01 4.1364871344518084e-01 6.3393068686237708e-01  5.7393248814275066e-01 3.8060918754951023e-01 6.5255701629624130e-01  5.7044811066727608e-01 3.4656693577117492e-01 6.6605370256112228e-01  5.6552008989503277e-01 3.1356136603797785e-01 6.7327896901347128e-01  5.5963822925108453e-01 2.8344824323964135e-01 6.7407275202666428e-01  5.5332630103944824e-01 2.5739885887888431e-01 6.6921602501619404e-01  5.4717065212825589e-01 2.3611450799380407e-01 6.6044171058505730e-01  5.4163150773304702e-01 2.1968162346623696e-01 6.4972309148481211e-01  5.3693039307171531e-01 2.0746316931936040e-01 6.3880034714821676e-01  5.3315047883337219e-01 1.9867713238355844e-01 6.2889380948507312e-01  5.3031230931568196e-01 1.9265122025194217e-01 6.2083067050358520e-01  5.2834256155384585e-01 1.8874139434250822e-01 6.1493214733310109e-01  5.2715758873680418e-01 1.8648133987828841e-01 6.1127184508917054e-01  5.2663476258687758e-01 1.8548257572058774e-01 6.0963914874154479e-01  5.2666833541249558e-01 1.8548781649205820e-01 6.0976642591901009e-01  5.2715401731165734e-01 1.8630589314146717e-01 6.1132369660023522e-01  5.2801690872991591e-01 1.8783052797698704e-01 6.1403924353408912e-01  5.2916462062982650e-01 1.8993938749928183e-01 6.1757046237608404e-01  5.3054516771442561e-01 1.9258078096669759e-01 6.2170926534793447e-01  5.3204387861593205e-01 1.9558727410621035e-01 6.2605357124563299e-01  5.3366725894792111e-01 1.9899451035465410e-01 6.3059919973617284e-01  5.3537956369374018e-01 2.0276241712573531e-01 6.3520269446720801e-01  5.3716407727108073e-01 2.0688166999425248e-01 6.3979145435613594e-01  5.3900880150507113e-01 2.1135017877622597e-01 6.4430410606138055e-01  5.4089829527759015e-01 2.1615747387342402e-01 6.4867773612230539e-01  5.4280289609392918e-01 2.2124660852316233e-01 6.5282580679157898e-01  5.4472007149419066e-01 2.2662581606015086e-01 6.5672587244933278e-01  5.4666242671710230e-01 2.3235277038765087e-01 6.6038573824154412e-01  5.4859391151774528e-01 2.3833459408378113e-01 6.6372208871110461e-01  5.5050613814126848e-01 2.4455947906172973e-01 6.6671248164130326e-01  5.5239622828828672e-01 2.5102504108998913e-01 6.6934732283314058e-01  5.5426005445454485e-01 2.5772809216024639e-01 6.7161509853409185e-01  5.5605592849895358e-01 2.6452840619373075e-01 6.7346149630253294e-01  5.5780567671723913e-01 2.7149764399514520e-01 6.7492822130109664e-01  5.5948153123909139e-01 2.7851883640529085e-01 6.7599231190545839e-01  5.6108882081818012e-01 2.8562221105793784e-01 6.7667564802761271e-01  5.6261158843891368e-01 2.9270740238552662e-01 6.7698733674221834e-01  5.6404135760084317e-01 2.9972635650743268e-01 6.7695202274655053e-01  5.6538187187954747e-01 3.0667238908331690e-01 6.7659344106278552e-01  5.6663240446690333e-01 3.1351729178673771e-01 6.7594160049597496e-01  5.6779100755534140e-01 3.2021924143632080e-01 6.7502714628067406e-01  5.6984434735834422e-01 3.3314812714751257e-01 6.7252799781107853e-01  5.7074189241996864e-01 3.3932504583462486e-01 6.7100390079531314e-01  5.7156139390273886e-01 3.4531956741669279e-01 6.6932899720471695e-01  5.7230509131963958e-01 3.5110794895358904e-01 6.6753091258788755e-01  5.7297764243153027e-01 3.5669066502168828e-01 6.6563245696377049e-01  5.7358404081195991e-01 3.6207060585227607e-01 6.6365193951696555e-01  5.7412843607292940e-01 3.6724668530460125e-01 6.6160822589784196e-01  5.7461558329495988e-01 3.7222331305405054e-01 6.5951647195448615e-01  5.7504973125902303e-01 3.7700534294442412e-01 6.5739037165655856e-01  5.7543487841976770e-01 3.8159714996241573e-01 6.5524171654180408e-01  5.7577450077555536e-01 3.8600172344245320e-01 6.5308242840593311e-01  5.7607292125302834e-01 3.9022591207194446e-01 6.5092150507387292e-01  5.7633379110997318e-01 3.9428783051850969e-01 6.4875993422112188e-01  5.7656025226524898e-01 3.9819191867933412e-01 6.4660522561767797e-01  5.7675396787918076e-01 4.0192155436433591e-01 6.4447567263272942e-01  5.7691936408083977e-01 4.0552427953167297e-01 6.4235155697600077e-01  5.7705799086133136e-01 4.0898213855832788e-01 6.4025129351684451e-01  5.7717147172443095e-01 4.1227817905354142e-01 6.3819206471407430e-01  5.7726265675847555e-01 4.1544898646538858e-01 6.3615810208868317e-01  5.7733403665956973e-01 4.1849734802788546e-01 6.3415340452530489e-01  5.7738668820839889e-01 4.2142552081940376e-01 6.3218130219495694e-01  5.7742242307430380e-01 4.2423473458164263e-01 6.3024608247352321e-01  5.7744293807659519e-01 4.2693766683708528e-01 6.2834375117718677e-01  5.7744941727719279e-01 4.2953678938953443e-01 6.2647645751374126e-01  5.7744330047388159e-01 4.3202602056965256e-01 6.2465280100719767e-01  5.7742569618788731e-01 4.3441778899593064e-01 6.2286724227277979e-01  5.7739776762995376e-01 4.3672670098051530e-01 6.2111267549819327e-01  5.7736069829916736e-01 4.3892944199788853e-01 6.1940939899831393e-01  5.7731502284359748e-01 4.4105589877554052e-01 6.1773758979021520e-01  5.7726195341721176e-01 4.4309968865719151e-01 6.1610508207562364e-01  5.7720228411903030e-01 4.4506156123275026e-01 6.1451384836522460e-01  5.7713668321922229e-01 4.4694654955092933e-01 6.1296211156777902e-01  5.7706592297866499e-01 4.4875728334473453e-01 6.1145016476634373e-01  5.7699048170261968e-01 4.5049943065001741e-01 6.0997527973596077e-01  5.7691073122365477e-01 4.5218002370808014e-01 6.0853342586221371e-01  5.7682821278673480e-01 4.5378301539540994e-01 6.0714049658225633e-01  5.7674311944107659e-01 4.5531747993402993e-01 6.0579051032842901e-01  5.7665461070734025e-01 4.5680866005179938e-01 6.0446278663652520e-01  5.7656476851628291e-01 4.5823110746834733e-01 6.0318155598202849e-01  5.7647392509547346e-01 4.5958836823347016e-01 6.0194521021080616e-01  5.7638169170523323e-01 4.6089545881983857e-01 6.0074171488161687e-01  5.7628895427243287e-01 4.6214703371103033e-01 5.9957733567037230e-01  5.7619554153389407e-01 4.6335021915823238e-01 5.9844655239050737e-01  5.7610298671930316e-01 4.6449356192112373e-01 5.9736168995671579e-01  5.7601029119696057e-01 4.6559283170115601e-01 5.9630874156602598e-01  5.7591855042200002e-01 4.6664079518720131e-01 5.9529583393320651e-01  5.7582754089842370e-01 4.6764478861019115e-01 5.9431700051835046e-01  5.7573730942499868e-01 4.6860822373312222e-01 5.9336989476502200e-01  5.7564943141128000e-01 4.6951689892014720e-01 5.9246925452787913e-01  5.7556356891851834e-01 4.7037932552229472e-01 5.9160780297399673e-01  5.7547869415596209e-01 4.7120911770722834e-01 5.9077287619711971e-01  5.7539663459032442e-01 4.7199091537413718e-01 5.8998060831439214e-01  5.7531734167671400e-01 4.7272808372304131e-01 5.8922845414602221e-01  5.7524038437203284e-01 4.7342774465971060e-01 5.8850996697375613e-01  5.7516592265824995e-01 4.7409063365706305e-01 5.8782510841751345e-01  5.7509499181663459e-01 4.7470964211721034e-01 5.8718180540327181e-01  5.7624941930101636e-01 4.6266207873330090e-01 5.9909457122529453e-01  5.4525990392527612e-01 2.2819436643437749e-01 6.5777380589515222e-01  5.7498348210500871e-01 4.7562391496514750e-01 5.8621443470407519e-01  5.6830368255128960e-01 3.2331688073841702e-01 6.7451316043769061e-01  5.7507363027458736e-01 4.7489372652499140e-01 5.8698982861871130e-01  5.1292982818554556e-01 1.6697434676892550e-01 5.6011529569097962e-01  5.7620357784679044e-01 4.6313163431011872e-01 5.9863012902383606e-01  5.7742667947866710e-01 4.3214823474682312e-01 6.2452482208663940e-01  5.7569241959520390e-01 4.3553128264262031e-01 6.1825206391207688e-01  5.4650562354555288e-01 2.3206712121231299e-01 6.6003799004184815e-01  5.7703554513614930e-01 4.4947627535961532e-01 6.1084362942890591e-01  5.2695307218581533e-01 1.8597884526339392e-01 6.1068765597515262e-01  5.3152435913323282e-01 1.9460282480250171e-01 6.2457839431660733e-01  5.7738098406336702e-01 4.3779274322258532e-01 6.2029175889847599e-01  5.6342852249847541e-01 2.9688313344606271e-01 6.7690473223481462e-01  5.7464745980047083e-01 4.7834746057712252e-01 5.8331941039238266e-01  5.3410969302644185e-01 2.0102296759728353e-01 6.3145776990671343e-01  5.7212919732264766e-01 3.6160091712726516e-01 6.6069643499215891e-01  5.7448411118158738e-01 4.7959977253116637e-01 5.8196439538991973e-01  5.7736330732477137e-01 4.2003713074700683e-01 6.3312124554580818e-01  5.7194391063615402e-01 3.4850974966816828e-01 6.6828201717137126e-01  5.7644237715914015e-01 3.9610249763350186e-01 6.4776956403793551e-01  5.7449289920399993e-01 4.7953782911660364e-01 5.8203320688737226e-01  5.6738487057449793e-01 5.0718247177325970e-01 5.4285324557676706e-01  5.7589593700237018e-01 3.8803387750728940e-01 6.5199444583116906e-01  5.7481892825720959e-01 3.7442455619733173e-01 6.5855059302759100e-01  5.7461234274378170e-01 4.7863599732086282e-01 5.8301360595254237e-01  5.7570264692656814e-01 4.6897004937222869e-01 5.9301222570495171e-01  5.5688271005840051e-01 2.6778570431346327e-01 6.7419175369092899e-01  5.2843966116964747e-01 1.9020695680414187e-01 6.1494703476946422e-01  5.7686468975451477e-01 4.5285352050672945e-01 6.0792079172187286e-01  5.7545481228290374e-01 4.7137790994068579e-01 5.9058662136521944e-01  5.6093118986544233e-01 5.2280404960372462e-01 5.1325663403498967e-01  5.7702617680792745e-01 4.0871275089588766e-01 6.4036572044326434e-01  5.7262607923400299e-01 3.5373176763718489e-01 6.6665767093420980e-01  5.7477692340794362e-01 4.7734912292212717e-01 5.8439691066769439e-01  5.2095476659151141e-01 1.7636265824464673e-01 5.9059262911203769e-01  5.3604278202080347e-01 2.0428185859680714e-01 6.3693149449071462e-01  5.7536721987153061e-01 4.7226621035847138e-01 5.8970030203310064e-01  5.7661937098581129e-01 4.5737838567308453e-01 6.0395174028613430e-01  5.6343376709886694e-01 2.9670212509767624e-01 6.7700702743305141e-01  5.5905608754940972e-01 2.8276938984318850e-01 6.7301850994493606e-01  5.7722193595348914e-01 4.4396934434241991e-01 6.1536732262953764e-01  5.7455506248252797e-01 4.7906045709125472e-01 5.8254960191516558e-01  5.7654102048401756e-01 4.5843072662355416e-01 6.0297446642624331e-01  5.6825033502543354e-01 5.0361248540292003e-01 5.4788121242847454e-01  5.1568578691837696e-01 1.7015551879678961e-01 5.7093213618401695e-01  5.7736891042491656e-01 4.2149430661955040e-01 6.3209014136488317e-01  5.5449231041946923e-01 2.5879065953993213e-01 6.7178860996179302e-01  5.7597182440432826e-01 4.6603599234735388e-01 5.9588134247578417e-01  5.7521137620517693e-01 4.7364136734746948e-01 5.8827690822081058e-01  5.7744781418856528e-01 4.3078695573211828e-01 6.2556495997764394e-01  5.4929178916462362e-01 2.4337586024670377e-01 6.6372589394227444e-01  5.7712044976238575e-01 4.1072922931888051e-01 6.3916721439881830e-01  5.5137596109274412e-01 2.4750631477913529e-01 6.6795860460662393e-01  5.7576997967291366e-01 4.6818285545355387e-01 5.9377047465398713e-01  5.7723659688