<?xml version="1.0"?>
<VTKFile type="UnstructuredGrid"  version="0.1"  >
<UnstructuredGrid>
<Piece  NumberOfPoints="25605" NumberOfCells="50684">
<Points>
<DataArray  type="Float64"  NumberOfComponents="3"  format="ascii">500 250 0  0 250 0  250 500 0  250 0 0  252.9976310880008 499.9820277697183 0  255.994831180465 499.9281136629446 0  258.9911693467 499.8382654314166 0  261.9862147844171 499.7124959931758 0  264.9795368730259 499.550823430959 0  267.9707052380909 499.3532709896657 0  270.9592898147818 499.1198670729815 0  273.944860911003 498.850645239173 0  276.9269892620302 498.5456441969613 0  279.9052461102784 498.204907798141 0  282.879203246639 497.8284850332306 0  285.8484330760252 497.4164300243493 0  288.812508703066 496.9688020138868 0  291.7710039592635 496.4856653605544 0  294.7234934645729 495.9670895309458 0  297.6695527219374 495.4131490839284 0  300.6087581526373 494.8239236640241 0  303.5406871632312 494.1994979890193 0  306.4649182085955 493.5399618372653 0  309.3810308492501 492.8454100354388 0  312.2886058121011 492.1159424449053 0  315.1872250543244 491.3516639464432 0  318.0764718164482 490.552684426976 0  320.9559306911491 489.7191187614222 0  323.8251876776197 488.8510867975364 0  326.6838302398962 487.9487133391117 0  329.5314473625203 487.0121281293906 0  332.3676296259557 486.0414658270902 0  335.1919692490408 485.0368659922747 0  338.0040601519906 483.9984730650284 0  340.8034980252745 482.926436340691 0  343.5898803648273 481.8209099570125 0  346.3628065522297 480.6820528636277 0  349.1218779058009 479.5100288014175 0  351.866697726272 478.3050062840155 0  354.5968713702315 477.0671585667096 0  357.3120063039883 475.7966636224122 0  360.0117121560444 474.4937041177227 0  362.6956007624657 473.158467392091 0  365.3632862410136 471.7911454221605 0  368.0143850392318 470.39193479756 0  370.6485159774368 468.9610366993228 0  373.2653003309281 467.4986568563726 0  375.8643618621848 466.0050055277077 0  378.4453268904447 464.4802974634425 0  381.0078243277097 462.9247518841339 0  383.5514857466806 461.3385924407896 0  386.0759454147861 459.7220471945478 0  388.5808403686633 458.0753485704519 0  391.0658104727646 456.398733318938 0  393.5304984398443 454.6924425024281 0  395.9745499014433 452.9567214483695 0  398.3976134594079 451.1918197133078 0  400.7993407313268 449.3979910505549 0  403.1793863983767 447.5754933756127 0  405.5374082633365 445.7245887228382 0  407.8730672875487 443.8455432173283 0  410.1860276678057 441.9386270139729 0  412.4759568502628 440.0041142859584 0  414.7425255888164 438.0422831775295 0  416.9854079982472 436.0534157591817 0  419.2042816111551 434.0377979776246 0  421.3988273934515 431.9957196423856 0  423.5687298230711 429.9274743545459 0  425.7136769203488 427.833359477718 0  427.8333602660664 425.7136761224903 0  429.9274751166117 423.5687290330868 0  431.9957203865596 421.3988266032683 0  434.0377986976932 419.2042808279605 0  436.0534164531565 416.9854072250276 0  438.0422838486247 414.7425248228072 0  440.0041149354581 412.4759560907189 0  441.9386276454979 410.1860269110977 0  443.8455438341414 407.8730665301906 0  445.7245893245478 405.5374075061595 0  447.5754939498422 403.1793856577179 0  449.3979916037435 400.7993399998601 0  451.1918202566634 398.3976127227471 0  452.9567219786559 395.9745491641559 0  454.6924430171686 393.53049770576 0  456.3987338202434 391.0658097392857 0  458.0753490553683 388.5808396405746 0  459.7220476673142 386.0759446861523 0  461.3385928978555 383.5514850233965 0  462.924752323721 381.0078236132563 0  464.4802978831972 378.4453261895309 0  466.005005928237 375.8643611748071 0  467.4986572464557 373.2652996426359 0  468.9610370690891 370.64851530636 0  470.3919351512159 368.0143843787793 0  471.7911457549822 365.363285601149 0  473.1584677051019 362.6956001426453 0  474.4937044170927 360.0117115451396 0  475.7966639080153 357.3120057030471 0  477.0671588375024 354.5968707823731 0  478.3050065468899 351.8666971371142 0  479.5100290514928 349.1218773267684 0  480.68205310082 346.3628059844174 0  481.8209101826405 343.5898798059497 0  482.926436550004 340.8034974883511 0  483.9984732613996 338.0040596298491 0  485.0368661774559 335.1919687381426 0  486.0414660017697 332.3676291253755 0  487.0121282892932 329.5314468859938 0  487.9487134870012 326.6838297809975 0  488.8510869337421 323.825187236945 0  489.7191188882317 320.9559302627332 0  490.5526845449373 318.0764713996244 0  491.3516640573307 315.1872246437704 0  492.1159425458163 312.2886054198597 0  492.8454101279934 309.3810304707378 0  493.5399619220304 306.4649178429931 0  494.1994980644915 303.5406868190015 0  494.8239237308971 300.6087578291331 0  495.4131491423161 297.6695524213444 0  495.9670895813101 294.7234931875826 0  496.4856654030534 291.7710037084818 0  496.9688020494549 288.8125084767419 0  497.416430053242 285.8484328766153 0  497.8284850586459 282.8792030550702 0  498.2049078189591 279.9052459374942 0  498.5456442137286 276.9269891072627 0  498.850645253019 273.9448607671062 0  499.1198670835989 270.9592896885852 0  499.3532709967772 267.9707051394148 0  499.5508234355897 264.9795367958812 0  499.7124959959075 261.9862147275054 0  499.8382654331632 258.9911692981657 0  499.928113663985 255.99483113709 0  499.9820277699785 252.9976310663071 0  499.9820277697257 247.0023689126091 0  499.9281136630343 244.0051688232745 0  499.8382654314717 241.0088306548307 0  499.7124959931211 238.0137852144455 0  499.5508234310553 235.0204631285785 0  499.3532709900699 232.0292947675166 0  499.119867073792 229.0407101948513 0  498.8506452406773 226.0551391046306 0  498.5456441987692 223.0730107546571 0  498.2049078002218 220.0947539069917 0  497.8284850356648 217.120796771709 0  497.4164300267099 214.151566940267 0  496.968802017216 211.187491318118 0  496.4856653659872 208.2289960727951 0  495.9670895372035 205.2765065698432 0  495.4131490907147 202.330447313 0  494.8239236713522 199.3912418828135 0  494.1994979969027 196.4593128727251 0  493.5399618460726 193.5350818293917 0  492.8454100458835 190.6189691934644 0  492.1159424557956 187.7113942302294 0  491.3516639574156 184.8127749862999 0  490.5526844387521 181.923528225163 0  489.7191187738694 179.0440693509028 0  488.851086810667 176.1748123648628 0  487.948713352938 173.3161698030064 0  487.0121281439243 170.4685526807917 0  486.0414658415049 167.6323704153526 0  485.0368660060558 164.8080307889799 0  483.9984730779887 161.9959398824702 0  482.9264363544502 159.1965020100202 0  481.8209099702043 156.4101196678486 0  480.6820528745703 153.6371934739656 0  479.5100288124721 150.8781221197951 0  478.3050062927852 148.1333022933829 0  477.0671585723666 145.403128642049 0  475.796663627405 142.687993706517 0  474.4937041236649 139.9882878560814 0  473.1584673984938 137.3043992502131 0  471.7911454319914 134.6367137778867 0  470.3919348096422 131.9856149833316 0  468.9610367113798 129.3514840444451 0  467.49865687022 126.7346996935054 0  466.0050055427385 124.1356381636107 0  464.4802974781252 121.5546731340727 0  462.9247519005733 118.992175699009 0  461.3385924615702 116.4485142862037 0  459.722047215144 113.924054616957 0  458.0753485880027 111.4191596576888 0  456.3987333337139 108.9341895488548 0  454.692442514023 106.4695015766915 0  452.95672145825 104.0254501122942 0  451.1918197247282 101.6023865560754 0  449.3979910627008 99.20065928473332 0  447.5754933882043 96.82061361786421 0  445.7245887341124 94.46259175085058 0  443.8455432269008 92.12693272420489 0  441.9386270210269 89.81397234064673 0  440.0041142971544 87.52404316283014 0  438.0422831897421 85.25747442512349 0  436.0534157701649 83.01459201399018 0  434.0377979907771 80.79571840315057 0  431.9957196541004 78.60117261898753 0  429.9274743620823 76.43127018474144 0  427.8333594859367 74.28632308796901 0  425.7136761283247 72.16663973969838 0  423.5687290359737 70.07252488617331 0  421.3988265987173 68.00427960915448 0  419.2042808240311 65.962201298694 0  416.9854072196475 63.94658354201471 0  414.742524818212 61.95771614734943 0  412.4759560828471 59.99588505781063 0  410.1860269003736 58.06137234555209 0  407.8730665183855 56.15445615624427 0  405.5374074948106 54.27541066643354 0  403.1793856410161 52.424506037209 0  400.7993399855741 50.60200838545225 0  398.3976127114923 48.80817973503514 0  395.9745491514178 47.04327801218227 0  393.5304976958927 45.30755697591243 0  391.0658097308475 43.60126617398947 0  388.5808396359472 41.92465094154986 0  386.0759446832285 40.27795233078868 0  383.5514850239504 38.66140710249451 0  381.007823619977 37.07524768041412 0  378.4453262000283 35.51970212308933 0  375.8643611921311 33.99499408185753 0  373.2652996617874 32.50134276439832 0  370.6485153256615 31.03896294154612 0  368.0143843882092 29.60806485383361 0  365.3632855907917 28.2088542396306 0  362.6956001322776 26.84153228966238 0  360.0117115354126 25.50629557814059 0  357.3120057003284 24.20333609069269 0  354.596870775138 22.93284115916481 0  351.8666971306181 21.69499345021163 0  349.121877320111 20.48997094563194 0  346.3628059771881 19.31794689616012 0  343.5898798100648 18.17908981902079 0  340.8034974914794 17.07356345121562 0  338.0040596332272 16.00152673987083 0  335.1919687416658 14.9631338238211 0  332.3676291322006 13.95853400061199 0  329.5314468917599 12.98787171264172 0  326.6838297822748 12.05128651341042 0  323.8251872378164 11.14891306652726 0  320.9559302656854 10.28088111264219 0  318.076471404611 9.447315456473888 0  315.1872246503818 8.648335944454999 0  312.2886054290304 7.88405745654299 0  309.3810304838133 7.154589875203868 0  306.4649178487239 6.460038079298243 0  303.5406868253978 5.800501936910877 0  300.6087578339258 5.176076270093546 0  297.669552426172 4.586850858621602 0  294.7234931936628 4.0329104197954 0  291.7710037123022 3.514334597594029 0  288.8125084726372 3.031197949900047 0  285.8484328697872 2.58356994576863 0  282.8792030484304 2.171514940473202 0  279.905245932244 1.795092180408318 0  276.9269891008954 1.454
[...]
<PointData  Vectors="f_12"> 
<DataArray  type="Float64"  Name="f_12"  NumberOfComponents="3" format="ascii">5.1612038818546535e-01 1.6987015386526541e-01 5.7284035549619750e-01  4.9548719681745584e-01 1.6371928024239071e-01 4.7801383052252472e-01  5.2598036786840419e-01 1.8387491910029630e-01 6.0773361842450324e-01  5.6671415142566195e-01 3.2541401856047081e-01 6.6952163833193179e-01  5.2606380825496257e-01 1.8401832359403025e-01 6.0800284039899211e-01  5.2614788461019468e-01 1.8416325814002085e-01 6.0827366292222018e-01  5.2622870481345596e-01 1.8430294262371835e-01 6.0853359232296234e-01  5.2630624342720844e-01 1.8443730990062823e-01 6.0878258164010146e-01  5.2638170289430741e-01 1.8456840398554702e-01 6.0902453626368669e-01  5.2645595664724987e-01 1.8469774506813566e-01 6.0926226655881566e-01  5.2652775897399051e-01 1.8482311501439821e-01 6.0949182152237191e-01  5.2659786750684967e-01 1.8494583005257245e-01 6.0971564235359710e-01  5.2666602022121134e-01 1.8506540086869375e-01 6.0993292044807790e-01  5.2673197583712039e-01 1.8518137159201434e-01 6.1014291841515833e-01  5.2679641411007283e-01 1.8529494080562328e-01 6.1034781034663277e-01  5.2685706520466580e-01 1.8540203814305278e-01 6.1054043132461000e-01  5.2691622074953204e-01 1.8550671569486843e-01 6.1072807072807600e-01  5.2697428345204522e-01 1.8560967859646219e-01 6.1091202348982621e-01  5.2702940640615747e-01 1.8570760841735012e-01 6.1108646547176759e-01  5.2708222166029350e-01 1.8580160175930827e-01 6.1125342797082860e-01  5.2713296688258038e-01 1.8589207873236718e-01 6.1141367702265903e-01  5.2718256486731885e-01 1.8598068214415298e-01 6.1157013261423843e-01  5.2723095446835766e-01 1.8606728578131149e-01 6.1172261501857206e-01  5.2727475254852774e-01 1.8614576707100816e-01 6.1186051899134086e-01  5.2731627848425444e-01 1.8622030002151169e-01 6.1199114898345175e-01  5.2735773494723148e-01 1.8629484509401378e-01 6.1212143180897050e-01  5.2739707240856115e-01 1.8636568501080011e-01 6.1224495341777141e-01  5.2743306600328965e-01 1.8643059262184211e-01 6.1235788573897942e-01  5.2746714934848393e-01 1.8649213969109654e-01 6.1246474539333384e-01  5.2749943334747040e-01 1.8655052241711895e-01 6.1256588714096893e-01  5.2752970125925425e-01 1.8660534590278507e-01 6.1266063904207613e-01  5.2755741967103742e-01 1.8665561494371924e-01 6.1274735582683493e-01  5.2758385358654991e-01 1.8670362561029027e-01 6.1282999645959113e-01  5.2760842475616299e-01 1.8674831849967155e-01 6.1290676179863668e-01  5.2762905914917313e-01 1.8678590114870428e-01 6.1297119506287834e-01  5.2764777774692118e-01 1.8682005481271721e-01 6.1302960750308244e-01  5.2766567880974435e-01 1.8685277408959025e-01 6.1308543208717003e-01  5.2768173070926971e-01 1.8688217178144015e-01 6.1313545645619494e-01  5.2769540729368836e-01 1.8690728025590631e-01 6.1317804771705453e-01  5.2770582461770055e-01 1.8692648099980225e-01 6.1321045890286319e-01  5.2771780561370607e-01 1.8694859230271760e-01 6.1324771028826086e-01  5.2772100775947606e-01 1.8695468265455115e-01 6.1325761040059135e-01  5.2772638479291634e-01 1.8696479832078725e-01 6.1327425785943157e-01  5.2772887424494574e-01 1.8696966914141874e-01 6.1328189770873176e-01  5.2772927708224837e-01 1.8697076301849694e-01 6.1328302302197524e-01  5.2772770033274430e-01 1.8696827637463068e-01 6.1327796672209489e-01  5.2772364453323084e-01 1.8696129483409801e-01 6.1326517435202277e-01  5.2771760442122528e-01 1.8695072683474218e-01 6.1324618308486667e-01  5.2770944624012261e-01 1.8693632960066661e-01 6.1322057446852174e-01  5.2769848065222036e-01 1.8691684435334285e-01 6.1318619949115472e-01  5.2768607287885416e-01 1.8689477560325174e-01 6.1314730261787465e-01  5.2767081169020857e-01 1.8686754508547829e-01 6.1309948522197744e-01  5.2765343427221556e-01 1.8683650795821896e-01 6.1304503580863112e-01  5.2763325270047923e-01 1.8680041613824844e-01 6.1298180181677187e-01  5.2761202849761057e-01 1.8676249077849508e-01 6.1291526901292692e-01  5.2758885365878327e-01 1.8672108327418765e-01 6.1284259625514104e-01  5.2756112380597819e-01 1.8667145251222764e-01 6.1275564874224875e-01  5.2753235370097984e-01 1.8662002007250028e-01 6.1266538016959815e-01  5.2750335035400364e-01 1.8656825545949085e-01 6.1257430830584247e-01  5.2747131312271844e-01 1.8651108110137801e-01 6.1247366709086803e-01  5.2743488609988842e-01 1.8644604903045606e-01 6.1235920190951931e-01  5.2739657186525080e-01 1.8637772293872598e-01 6.1223871690818887e-01  5.2735620292745367e-01 1.8630581174232461e-01 6.1211167388742926e-01  5.2731391711259845e-01 1.8623057567192339e-01 6.1197849163674933e-01  5.2726833178746702e-01 1.8614954285679766e-01 6.1183480609413576e-01  5.2722238358029705e-01 1.8606801393905459e-01 6.1168983659679832e-01  5.2717082597097387e-01 1.8597657452409597e-01 6.1152705225160775e-01  5.2711909300612603e-01 1.8588502317093550e-01 6.1136352252843074e-01  5.2706553314182425e-01 1.8579039282502918e-01 6.1119404540744049e-01  5.2700830655299147e-01 1.8568942437307762e-01 6.1101278269227233e-01  5.2694653460839769e-01 1.8558057865086156e-01 6.1081692416644728e-01  5.2688398924807933e-01 1.8547061837839673e-01 6.1061835791075303e-01  5.2682085399440071e-01 1.8535988723754213e-01 6.1041764981017732e-01  5.2675386186897066e-01 1.8524259454727990e-01 6.1020442667665820e-01  5.2668255925738949e-01 1.8511797402025973e-01 6.0997720773946829e-01  5.2660957969341771e-01 1.8499073359780629e-01 6.0974430847845484e-01  5.2653420297858022e-01 1.8485963038004974e-01 6.0950340904721534e-01  5.2645617662579192e-01 1.8472425717939400e-01 6.0925366780108947e-01  5.2637488681493250e-01 1.8458355222470793e-01 6.0899309516942357e-01  5.2629152736563800e-01 1.8443966727387831e-01 6.0872545326984029e-01  5.2620632186855643e-01 1.8429302113577611e-01 6.0845143009783198e-01  5.2611692131782395e-01 1.8413955633895843e-01 6.0816344420518087e-01  5.2602381474889404e-01 1.8398017072626846e-01 6.0786301664215037e-01  5.2592887557847867e-01 1.8381818345693249e-01 6.0755610252784509e-01  5.2583082326565589e-01 1.8365141620649444e-01 6.0723853862915911e-01  5.2572937402540565e-01 1.8347940233275120e-01 6.0690936412857754e-01  5.2562665628024641e-01 1.8330587064140155e-01 6.0657540332129456e-01  5.2551978446144765e-01 1.8312595377565213e-01 6.0622723679263535e-01  5.2540845901486577e-01 1.8293916632780802e-01 6.0586384510384095e-01  5.2529512585546911e-01 1.8274975902922092e-01 6.0549309119761641e-01  5.2517863620413407e-01 1.8255583161931757e-01 6.0511118127955665e-01  5.2505925135211695e-01 1.8235788510638964e-01 6.0471890981705878e-01  5.2493705235216537e-01 1.8215612454307711e-01 6.0431646839007014e-01  5.2480944372296745e-01 1.8194627290384993e-01 6.0389524453602894e-01  5.2468017018515967e-01 1.8173466586792195e-01 6.0346748947891760e-01  5.2454711887494454e-01 1.8151786235915732e-01 6.0302614464739357e-01  5.2441056721360157e-01 1.8129636928460696e-01 6.0257207372649491e-01  5.2427163799132859e-01 1.8107215325659498e-01 6.0210887915180544e-01  5.2412743537326367e-01 1.8084052566583247e-01 6.0162687809409576e-01  5.2398014989887753e-01 1.8060518398855360e-01 6.0113322867723140e-01  5.2383035028204417e-01 1.8036710493689709e-01 6.0062977657632921e-01  5.2367486866238788e-01 1.8012132688024970e-01 6.0010575392770560e-01  5.2351674106192525e-01 1.7987277882812611e-01 5.9957130094562072e-01  5.2335556180778198e-01 1.7962092765764140e-01 5.9902491882917286e-01  5.2318904122167575e-01 1.7936222299716570e-01 5.9845877503456557e-01  5.2301906313521651e-01 1.7909982866876992e-01 5.9787907787086514e-01  5.2284521477968726e-01 1.7883316321821602e-01 5.9728434306270295e-01  5.2266764431049462e-01 1.7856255946009741e-01 5.9667495525349812e-01  5.2248589180914207e-01 1.7828747598407160e-01 5.9604918082193303e-01  5.2229946618992362e-01 1.7800724733279888e-01 5.9540521818792791e-01  5.2211025677259737e-01 1.7772492050614727e-01 5.9474942500036199e-01  5.2191510849753064e-01 1.7743585119896210e-01 5.9407073628350726e-01  5.2171484706416349e-01 1.7714147876530908e-01 5.9337182497366914e-01  5.2151176999849214e-01 1.7684532523692925e-01 5.9266056217645724e-01  5.2130492246715443e-01 1.7654617754729565e-01 5.9193343586429514e-01  5.2109258933139524e-01 1.7624161106181932e-01 5.9118431246268865e-01  5.2087584082579830e-01 1.7593339265223748e-01 5.9041672728124650e-01  5.2065528163840158e-01 1.7562260934353868e-01 5.8963263077960326e-01  5.2043013702041663e-01 1.7530825854407589e-01 5.8882917269157253e-01  5.2019711839885396e-01 1.7498609757444769e-01 5.8799420956682535e-01  5.1995983493361719e-01 1.7466115376797475e-01 5.8714063791510962e-01  5.1972009429429422e-01 1.7433625360182031e-01 5.8627462132395147e-01  5.1947645457297786e-01 1.7400963268178446e-01 5.8539082375355356e-01  5.1922469100582180e-01 1.7367572680883828e-01 5.8447370456127001e-01  5.1896832987570485e-01 1.7333946493647745e-01 5.8353586704706484e-01  5.1870783879132865e-01 1.7300185052976974e-01 5.8257867082767545e-01  5.1844103779254314e-01 1.7266031969616369e-01 5.8159387223784831e-01  5.1817018586526220e-01 1.7231789755894847e-01 5.8058961112093688e-01  5.1789391715445365e-01 1.7197312795925720e-01 5.7956054908488885e-01  5.1761164494348888e-01 1.7162562737371106e-01 5.7850419107281859e-01  5.1732426478116245e-01 1.7127676754488264e-01 5.7742358969877283e-01  5.1703167121006455e-01 1.7092673688454166e-01 5.7631806384242867e-01  5.1673377014665334e-01 1.7057572410320340e-01 5.7518695036411660e-01  5.1643003007178989e-01 1.7022342709682459e-01 5.7402791350345872e-01  5.1580499457639362e-01 1.6951641566076861e-01 5.7162451232582834e-01  5.1548414835138767e-01 1.6916293113698844e-01 5.7038117868903326e-01  5.1515706938539441e-01 1.6880920238294067e-01 5.6910694760685410e-01  5.1482468505701673e-01 1.6845669045697179e-01 5.6780505548435845e-01  5.1448649481206288e-01 1.6810526687195257e-01 5.6647315380747876e-01  5.1414220230667051e-01 1.6775497058195266e-01 5.6510970821948614e-01  5.1379274869091041e-01 1.6740730653703195e-01 5.6371799259521771e-01  5.1343793877841282e-01 1.6706248350114936e-01 5.6229685541593044e-01  5.1307613486143822e-01 1.6671932615694932e-01 5.6083931627013628e-01  5.1271011634594110e-01 1.6638126832990574e-01 5.5935601347307096e-01  5.1233401971219505e-01 1.6604299305984355e-01 5.5782277260498270e-01  5.1195425584230148e-01 1.6571112849005576e-01 5.5626520697274662e-01  5.1156950917078758e-01 1.6538514258015177e-01 5.5467737909565529e-01  5.1117781380667449e-01 1.6506382553188936e-01 5.5305071561174557e-01  5.1078027680799198e-01 1.6474855145330197e-01 5.5138938891286615e-01  5.1037871704652582e-01 1.6444186482236242e-01 5.4970021886629261e-01  5.0996900248637589e-01 1.6414084753510011e-01 5.4796553916007440e-01  5.0955412376969300e-01 1.6384863167349487e-01 5.4619719628866714e-01  5.0913340970999188e-01 1.6356529027503539e-01 5.4439187049672444e-01  5.0870823827346556e-01 1.6329260111427074e-01 5.4255488638200933e-01  5.0827736125773670e-01 1.6303055975812036e-01 5.4068017748290231e-01  5.0783831767362653e-01 1.6277831061488343e-01 5.3875649272180715e-01  5.0739477486402518e-01 1.6253940725434987e-01 5.3679882515175448e-01  5.0694616916543389e-01 1.6231398718872386e-01 5.3480435834628592e-01  5.0649307954198985e-01 1.6210358510982162e-01 5.3277473916832774e-01  5.0603409888922346e-01 1.6190806911384392e-01 5.3070326238677645e-01  5.0557140166393533e-01 1.6173001776745555e-01 5.2859864858596672e-01  5.0510147043487763e-01 1.6156881449395225e-01 5.2644429773649626e-01  5.0462729315803667e-01 1.6142669284460870e-01 5.2425297376168112e-01  5.0415065014241678e-01 1.6130521643183179e-01 5.2203229031242748e-01  5.0366845511616198e-01 1.6120527290861389e-01 5.1976675734364008e-01  5.0318069130560961e-01 1.6112751595848362e-01 5.1745582083691477e-01  5.0269032110285738e-01 1.6107493349103011e-01 5.1511189200777729e-01  5.0219573726983813e-01 1.6104812891118328e-01 5.1272679570457591e-01  5.0169774530626920e-01 1.6104861646584342e-01 5.1030340751089509e-01  5.0119684961173283e-01 1.6107815606881118e-01 5.0784319917018850e-01  5.0069435724968359e-01 1.6113900150877955e-01 5.0535117605351776e-01  5.0018694854989776e-01 1.6123241006051728e-01 5.0281031175983049e-01  4.9967920662929788e-01 1.6136034411037045e-01 5.0024195003631766e-01  4.9916925758898656e-01 1.6152488151035629e-01 4.9763565546498156e-01  4.9865664492960826e-01 1.6172816802621362e-01 4.9498791716457630e-01  4.9814400882760085e-01 1.6197226210333279e-01 4.9231076580457461e-01  4.9763207855394181e-01 1.6226033120147784e-01 4.8960584659399659e-01  4.9711857804359028e-01 1.6259211028574624e-01 4.8686232965737425e-01  4.9660721823719567e-01 1.6297266544420419e-01 4.8409564282908790e-01  4.9609520821749165e-01 1.6340474936700977e-01 4.8129059837535393e-01  4.9558617780739816e-01 1.6388895513462748e-01 4.7846510363355199e-01  4.9508030797142316e-01 1.6442904039410292e-01 4.7561813568887490e-01  4.9457632946180830e-01 1.6502882796000326e-01 4.7274135392674815e-01  4.9407693496068472e-01 1.6569057368952927e-01 4.6984719314768725e-01  4.9358072932218860e-01 1.6641904902314422e-01 4.6692624880388878e-01  4.9309169010488180e-01 1.6721453087936847e-01 4.6399881079219146e-01  4.9261058608191255e-01 1.6808022736138567e-01 4.6106731524069094e-01  4.9213460592557534e-01 1.6902379845165236e-01 4.5811343392873932e-01  4.9166754997694900e-01 1.7004498212526517e-01 4.5515711529165981e-01  4.9121106872038173e-01 1.7114853891009410e-01 4.5220463522977339e-01  4.9076412913694084e-01 1.7233999998709010e-01 4.4924797682827050e-01  4.9032949711996715e-01 1.7362066311712868e-01 4.4630106406233788e-01  4.8990871874968756e-01 1.7499333180045615e-01 4.4337094419596607e-01  4.8950337038493552e-01 1.7646123608278563e-01 4.4046449899203999e-01  4.8911259456778083e-01 1.7803490098428848e-01 4.3757190102285215e-01  4.8873886107660597e-01 1.7971473045672806e-01 4.3470629364776903e-01  4.8838492958006086e-01 1.8149997544561278e-01 4.3188313735059652e-01  4.8805273199217591e-01 1.8339187423996436e-01 4.2911250356327513e-01  4.8774246369616464e-01 1.8539656531317128e-01 4.2639252395204608e-01  4.8745657662885811e-01 1.8751647814375258e-01 4.2373539155464951e-01  4.8719649910834778e-01 1.8975075394820554e-01 4.2114967886777888e-01  4.8696451263384216e-01 1.9209548249518282e-01 4.1865021768007110e-01  4.8676345672246246e-01 1.9454671742282642e-01 4.1625499343957889e-01  4.8659263914646933e-01 1.9711576213002180e-01 4.1395436602652308e-01  4.8645482894998476e-01 1.9978867353018370e-01 4.1177137864686231e-01  4.8635350313577186e-01 2.0254196147102652e-01 4.0973830487430013e-01  4.8628935764405418e-01 2.0536745550616939e-01 4.0786396726786661e-01  4.8626273722318619e-01 2.0826317096495439e-01 4.0615164613106336e-01  4.8627532928068623e-01 2.1120068035911196e-01 4.0462677237371591e-01  4.8632893790273723e-01 2.1414481542841601e-01 4.0331939682522849e-01  4.8642321121708221e-01 2.1706979142324503e-01 4.0224243440047530e-01  4.8655881856529948e-01 2.1993124874862080e-01 4.0142513682119718e-01  4.8673553324929092e-01 2.2268058529478924e-01 4.0089439075455757e-01  4.8695209519074961e-01 2.2526060347962565e-01 4.0067628812742262e-01  4.8720727898050914e-01 2.2759500580354983e-01 4.0080833437125374e-01  4.8749960413280857e-01 2.2961289783116942e-01 4.0132374648099056e-01  4.8782729213801301e-01 2.3123330516158411e-01 4.0225987271281105e-01  4.8818891583980495e-01 2.3237006870840343e-01 4.0365887783219401e-01  4.8858359967537474e-01 2.3293508696862184e-01 4.0556665939044895e-01  4.8901204856726477e-01 2.3284885968107988e-01 4.0803202906036584e-01  4.8947716131548308e-01 2.3204254883769673e-01 4.1110824537526769e-01  4.8998523468218241e-01 2.3046964666288072e-01 4.1485217875241165e-01  4.9054667635889454e-01 2.2812212684774774e-01 4.1931810118150820e-01  4.9117682920721656e-01 2.2503039904014169e-01 4.2456140246263879e-01  4.9189636538638992e-01 2.2126891384166023e-01 4.3063672522986812e-01  4.9273032536796901e-01 2.1696799027647004e-01 4.3758576942183819e-01  4.9370784362366177e-01 2.1229510746107744e-01 4.4544574784434937e-01  4.9485838583257385e-01 2.0746296942823894e-01 4.5422526544202346e-01  4.9620993594370838e-01 2.0269958745896954e-01 4.6391186857869882e-01  4.9778610448248861e-01 1.9823550295573747e-01 4.7446400326908245e-01  4.9960126828742929e-01 1.9428958520588344e-01 4.8579475905299774e-01  5.0165178623817119e-01 1.9102986206957853e-01 4.9775612502094363e-01  5.0394215018565880e-01 1.8859351489696266e-01 5.1024848710555315e-01  5.0645827375640529e-01 1.8707011666714382e-01 5.2311199846283363e-01  5.0916020395936157e-01 1.8650995919800795e-01 5.3608915301778515e-01  5.1202087134707452e-01 1.8693708807799644e-01 5.4899964594377293e-01  5.1498909286835781e-01 1.8829495113200334e-01 5.6161454187619819e-01  5.1804208532854912e-01 1.9054480999947784e-01 5.7382304137776996e-01  5.2115347946799928e-01 1.9358632106142545e-01 5.8555610230150323e-01  5.2421115215114278e-01 1.9736646551031800e-01 5.9634448946081142e-01  5.2724956083292507e-01 2.0174751509847710e-01 6.0643211740866421e-01  5.3022043930697971e-01 2.0664241276659906e-01 6.1566875695063494e-01  5.3311456301005244e-01 2.1197412313578076e-01 6.2407613836552767e-01  5.3590833503172419e-01 2.1765644851215324e-01 6.3163512022023593e-01  5.3855941422824682e-01 2.2354297143408319e-01 6.3828812943253999e-01  5.4108478960286743e-01 2.2961095673797455e-01 6.4414394127739116e-01  5.4347981804656786e-01 2.3578860430173648e-01 6.4925267407426124e-01  5.4573234929402237e-01 2.4199144546197621e-01 6.5364662007481100e-01  5.4784417356424087e-01 2.4817788195945586e-01 6.5738589369170231e-01  5.4982128828861643e-01 2.5430982056208601e-01 6.6053857279598915e-01  5.5166216265867041e-01 2.6033532706276175e-01 6.6315568306368555e-01  5.5337720642522692e-01 2.6623998119413533e-01 6.6530126308110271e-01  5.5497832027579663e-01 2.7202106547149058e-01 6.6704095578244182e-01  5.5644451162955144e-01 2.7757008925800175e-01 6.6838645910167105e-01  5.5782283207461214e-01 2.8301415394313750e-01 6.6943084546666320e-01  5.5906695802737894e-01 2.8815311899195672e-01 6.7016562589925610e-01  5.6023393160698609e-01 2.9316179609283483e-01 6.7067665613413385e-01  5.6130772976610965e-01 2.9795260672792473e-01 6.7097814244905329e-01  5.6229759402343937e-01 3.0253722469450139e-01 6.7110245135193314e-01  5.6320308347966164e-01 3.0688642737377120e-01 6.7107793466615784e-01  5.6404531815341064e-01 3.1107166704534517e-01 6.7092880650812747e-01  5.6478911940123688e-01 3.1490341839118502e-01 6.7068221000357242e-01  5.6549005995054924e-01 3.1862251262438712e-01 6.7035293968400567e-01  5.6612887176930848e-01 3.2211598765924071e-01 6.6996241402206269e-01  5.6724389586803570e-01 3.2848204218621357e-01 6.6905180724357594e-01  5.6772985248170460e-01 3.3137188396852157e-01 6.6855707367988848e-01  5.6816918274196881e-01 3.3405254133447254e-01 6.6805302120289489e-01  5.6856289854801734e-01 3.3651360139983033e-01 6.6755254500380623e-01  5.6891567502898011e-01 3.3876836302881896e-01 6.6706322342166380e-01  5.6924481761159329e-01 3.4090982787596830e-01 6.6657371036271251e-01  5.6952573335765611e-01 3.4277957082413374e-01 6.6612250263987749e-01  5.6978757280897308e-01 3.4454569316866640e-01 6.6568113680789209e-01  5.7000990036842170e-01 3.4607137167432728e-01 6.6528557555046119e-01  5.7020660886804475e-01 3.4743848842523528e-01 6.6492078931328435e-01  5.7037738354518763e-01 3.4863698516037306e-01 6.6459390409362151e-01  5.7052103007914157e-01 3.4965386557655465e-01 6.6431113888488325e-01  5.7064028631477148e-01 3.5050163419934144e-01 6.6407266154328104e-01  5.7073773865594291e-01 3.5119351137362415e-01 6.6387709012433349e-01  5.7081354914760973e-01 3.5172728400231246e-01 6.6372692942195988e-01  5.7086398919947279e-01 3.5207514753634833e-01 6.6363113565147025e-01  5.7089459456254354e-01 3.5227349312841666e-01 6.6358053832378949e-01  5.7090107357120901e-01 3.5229135557527608e-01 6.6358447450133629e-01  5.7088218548473046e-01 3.5212015359095744e-01 6.6364533070908638e-01  5.7084964171702046e-01 3.5184080542532409e-01 6.6374041702119790e-01  5.7079428978