<?xml version="1.0"?>
<VTKFile type="UnstructuredGrid"  version="0.1"  >
<UnstructuredGrid>
<Piece  NumberOfPoints="4940" NumberOfCells="9650">
<Points>
<DataArray  type="Float64"  NumberOfComponents="3"  format="ascii">500 250 0  0 250 0  250 500 0  250 0 0  256.8885856082646 499.9050767557906 0  263.7719401218049 499.6203791065173 0  270.6448364229772 499.1461232471188 0  277.5020553257866 498.4826693209355 0  284.3383895508592 497.6305211460281 0  291.1486476865662 496.5903258312597 0  297.9276581259182 495.3628732847843 0  304.6702729675493 493.9490956196674 0  311.3713719748657 492.3500664368026 0  318.0258664141369 490.5670000199653 0  324.6287029687753 488.6012504015818 0  331.1748675330201 486.4543103455647 0  337.6593890460416 484.1278102064655 0  344.0773432429536 481.6235166997244 0  350.4238564271474 478.9433315480048 0  356.694109139292 476.0892900492477 0  362.88333985546 473.0635595140469 0  368.9868485575419 469.8684376402048 0  375.0000003153078 466.5063507640667 0  380.9182288257928 462.9798520074548 0  386.7370398729688 459.2916193419558 0  392.4520147244077 455.444453565817 0  398.0588135356345 451.4412761437442 0  403.5531785622926 447.285127045646 0  408.9309374414144 442.9791624087773 0  414.1880064015299 438.5266521049243 0  419.3203932989752 433.9309773069245 0  424.324200661095 429.1956279150535 0  429.1956286596235 424.3241998957182 0  433.9309780058756 419.3203925397119 0  438.5266527445345 414.1880056671062 0  442.9791630130591 408.9309367076756 0  447.2851276060475 403.5531778422888 0  451.4412766621026 398.0588128303826 0  455.4444540361634 392.4520140460735 0  459.2916197786263 386.7370392045948 0  462.9798524073514 380.9182281752347 0  466.5063511234856 374.9999996927758 0  469.8684379657123 368.9868479560565 0  473.0635598144817 362.8833392617846 0  476.0892903190255 356.6941085676214 0  478.9433317963513 350.4238558609745 0  481.6235169154735 344.0773427117675 0  484.12781039012 337.6593885555221 0  486.4543105028062 331.1748670749914 0  488.601250531677 324.6287025528375 0  490.5670001317469 318.0258660188321 0  492.3500665291326 311.3713716102628 0  493.949095695951 304.6702726271575 0  495.3628733416623 297.9276578347343 0  496.5903258712341 291.1486474470129 0  497.6305211749058 284.3383893426084 0  498.4826693388848 277.502055163614 0  499.1461232580606 270.6448362909296 0  499.6203791109319 263.7719400417897 0  499.9050767571306 256.8885855596534 0  499.9050767559877 243.1114143988867 0  499.6203791069493 236.2280598860241 0  499.1461232485393 229.3551635941651 0  498.4826693235677 222.4979446979962 0  497.6305211491849 215.6616104719064 0  496.5903258357701 208.8513523404629 0  495.3628732906988 202.0723419043604 0  493.9490956264813 195.3297270628552 0  492.3500664487791 188.6286280724281 0  490.5670000344809 181.9741336371959 0  488.6012504175981 175.3712970824318 0  486.4543103623226 168.8251325157939 0  484.1278102222298 162.3406109960628 0  481.6235167152198 155.9226567951971 0  478.9433315621651 149.5761436051346 0  476.0892900516498 143.3058908657982 0  473.063559513628 137.1166601437124 0  469.8684376406648 131.0131514433083 0  466.5063507675389 124.9999996907064 0  462.9798520124137 119.0817711822745 0  459.2916193464549 113.2629601339176 0  455.4444535642773 107.5479852733717 0  451.4412761528674 101.9411864767781 0  447.2851270583545 96.44682145403524 0  442.9791624165781 91.06906256805769 0  438.5266521117469 85.81199360630404 0  433.9309773156125 80.67960671046254 0  429.1956279150353 75.67579933888632 0  424.3241998888952 70.80437133373906 0  419.3203925223282 66.06902197812161 0  414.1880056411937 61.47334723289828 0  408.9309366751728 57.0208369601728 0  403.5531778009394 52.71487236176898 0  398.058812796452 48.55872331295853 0  392.4520140187753 44.55554594490843 0  386.7370391799677 40.70838020528396 0  380.9182281475119 37.02014757560744 0  374.9999996718656 33.49364886444181 0  368.9868479340393 30.13156202237255 0  362.8833392380029 26.93644017348339 0  356.6941085456942 23.91070967062674 0  350.4238558420009 21.0566681953261 0  344.0773426899492 18.37648307566465 0  337.6593885328982 15.87218960140942 0  331.1748670549786 13.54568949032341 0  324.6287025315056 11.39874946165088 0  318.0258660010876 9.432999863235466 0  311.3713716017894 7.649933468721599 0  304.6702726190621 6.050904302234756 0  297.9276578269805 4.637126656823085 0  291.148647441857 3.409674127905504 0  284.3383893425031 2.369478825079682 0  277.502055159398 1.517330660648639 0  270.6448362875833 0.853876741662134 0  263.7719400401456 0.3796208889774277 0  256.8885855592052 0.09492324285704967 0  243.1114143979462 0.09492324403817065 0  236.2280598850882 0.3796208931023841 0  229.3551635938215 0.8538767514891958 0  222.4979446968584 1.517330676558146 0  215.6616104703111 2.369478851036291 0  208.8513523382973 3.409674164591252 0  202.0723419066374 4.637126708856528 0  195.3297270659513 6.050904372824903 0  188.628628074828 7.649933550613184 0  181.9741336377093 9.432999965373938 0  175.3712970793675 11.39874958336037 0  168.8251325057572 13.54568964112298 0  162.340610986655 15.87218978129263 0  155.9226567874317 18.37648328793418 0  149.576143602509 21.05666843898663 0  143.3058908718157 23.91070994551046 0  137.1166601505524 26.93644048291054 0  131.0131514451933 30.13156235831508 0  124.9999996848412 33.49364923584736 0  119.0817711715717 37.0201479941652 0  113.2629601211624 40.70838066187849 0  107.5479852622251 44.55554644345162 0  101.9411864693332 48.55872385260452 0  96.44682143286516 52.71487295812284 0  91.06906254351222 57.02083760363669 0  85.81199358272519 61.4733479087879 0  80.67960667988106 66.06902271253972 0  75.67579930062769 70.80437212218331 0  70.80437129287643 75.67580015310926 0  66.06902193673014 80.67960752263491 0  61.47334718684866 85.81199441168215 0  57.02083692524275 91.0690633672404 0  52.71487232786438 96.44682224262129 0  48.55872328070024 101.941187247437 0  44.55554591578033 107.5479860232332 0  40.7083801742321 113.2629608675606 0  37.02014754791168 119.0817718975441 0  33.49364883372994 125.000000381329 0  30.13156199866361 131.0131521097709 0  26.9364401549829 137.1166607985551 0  23.91070965524918 143.3058914868915 0  21.05666818346614 149.576144185037 0  18.37648306853811 155.9226573275967 0  15.8721895918909 162.3406114925245 0  13.54568948170046 168.8251329701392 0  11.39874945301878 175.3712974960928 0  9.432999857087736 181.9741340206533 0  7.649933466342702 188.6286284076045 0  6.050904301250966 195.3297273853278 0  4.637126656808988 202.0723421730917 0  3.409674127767772 208.8513525589684 0  2.369478824521138 215.6616106615248 0  1.517330660909465 222.4979448382452 0  0.8538767414496533 229.355163714981 0  0.3796208887135322 236.2280599646376 0  0.09492324266324204 243.1114144478261 0  0.0949232442452228 256.8885856095658 0  0.3796208935834784 263.7719401236316 0  0.8538767530323526 270.6448364248016 0  1.517330679476544 277.5020553295092 0  2.369478854618649 284.3383895555228 0  3.409674170191892 291.1486476952655 0  4.6371267162381 297.9276581311522 0  6.050904381420935 304.6702729724059 0  7.649933562385399 311.3713719716595 0  9.43299997979841 318.0258664133013 0  11.3987495994252 324.6287029719946 0  13.54568965885832 331.174867545904 0  15.87218979367188 337.6593890464085 0  18.37648329843151 344.0773432384132 0  21.05666844777872 350.423856417535 0  23.91070995156048 356.6941091410045 0  26.93644048988043 362.8833398632205 0  30.13156235982007 368.9868485575877 0  33.49364924138357 375.0000003247478 0  37.0201480006036 380.9182288389023 0  40.70838066758398 386.7370398875706 0  44.55554644477201 392.4520147396792 0  48.55872386086904 398.0588135419111 0  52.71487295981296 403.5531785693063 0  57.02083760525949 408.9309374584583 0  61.47334790862246 414.1880064170849 0  66.06902271205095 419.320393319588 0  70.80437211216579 424.3242006890749 0  75.67580013809859 429.195628692521 0  80.6796075127923 433.930978054209 0  85.81199439754931 438.5266528008431 0  91.06906334717917 442.9791630582355 0  96.44682221438322 447.2851276501571 0  101.9411872243843 451.441276702356 0  107.5479859945825 455.4444540643537 0  113.2629608446994 459.2916198108319 0  119.0817718768376 462.9798524393601 0  125.0000003647644 466.5063511567065 0  131.0131521012763 469.8684379967393 0  137.1166607840049 473.0635598376539 0  143.3058914748804 476.0892903390826 0  149.5761441732679 478.9433318113714 0  155.9226573130112 481.6235169255377 0  162.3406114779862 484.1278104026658 0  168.8251329570439 486.4543105138039 0  175.3712974805475 488.601250542119 0  181.9741340135204 490.5670001408953 0  188.6286284005059 492.3500665318597 0  195.3297273788229 493.9490956972913 0  202.0723421640089 495.3628733414168 0  208.8513525529672 496.5903258712308 0  215.6616106544547 497.6305211744985 0  222.4979448327038 498.4826693384772 0  229.3551637102845 499.1461232581612 0  236.2280599621369 499.6203791111485 0  243.1114144470173 499.9050767573145 0  155.2373389820306 474.8197567317462 0  25.36256300907667 153.9152755065208 0  432.3709625126712 412.6214396304305 0  6.013151705810699 246.637913163471 0  246.6379131630491 493.986848294322 0  338.6995838441862 22.68244767887072 0  477.3175523131281 338.6995838660569 0  493.9868482700757 246.6379131399102 0  246.6201155078769 6.218451882810491 0  417.6179310263282 72.7156044707053 0  102.2232990934413 445.0100869616822 0  63.66330858966404 92.20354579482142 0  391.3105220491464 50.73522820883105 0  72.79295043967942 418.0702734974704 0  448.290574428537 108.25674339002 0  402.4604651193511 440.7462829841712 0  97.55317348421397 59.11376320116034 0  136.7376477664901 33.58246472647134 0  363.3288394375288 465.6947312928271 0  44.0678766556007 381.0860953771871 0  469.6905266180034 142.3890690100806 0  22.68244791668644 338.6995843487432 0  338.699584349159 477.317552078365 0  173.389488083762 18.6681884918202 0  483.4809734778481 179.7121987795732 0  13.50237455842738 306.4709525540879 0  305.9825168523021 487.24416992
[...]
<PointData  Vectors="f_12"> 
<DataArray  type="Float64"  Name="f_12"  NumberOfComponents="3" format="ascii">4.8810836253156886e-01 2.8843197925976577e-01 3.6941846750668511e-01  5.0580050319233927e-01 4.1517381654457769e-01 3.8068016811582128e-01  4.8491205055605341e-01 2.4101396171105791e-01 3.7974846461827266e-01  4.9128708760761580e-01 3.1169300930020105e-01 3.7275009440081852e-01  4.8488894359102186e-01 2.4039903239365820e-01 3.7997447938223328e-01  4.8486835135460216e-01 2.3983698406408482e-01 3.8018376817887911e-01  4.8484933733737695e-01 2.3930545779762841e-01 3.8038407000372554e-01  4.8483235947554859e-01 2.3882009379738497e-01 3.8056895570879407e-01  4.8481708839165955e-01 2.3837364209614320e-01 3.8074081157935141e-01  4.8480343875292609e-01 2.3796642898278730e-01 3.8089900241915803e-01  4.8479131855640578e-01 2.3759782388446724e-01 3.8104341676872072e-01  4.8478060403089407e-01 2.3726601124121510e-01 3.8117443472202217e-01  4.8477128272272457e-01 2.3697249132009135e-01 3.8129114621842586e-01  4.8476333986453662e-01 2.3671849800990033e-01 3.8139278940033783e-01  4.8475710579508641e-01 2.3651634615195563e-01 3.8147414442062344e-01  4.8475124041742701e-01 2.3632421133201642e-01 3.8155178906775872e-01  4.8474773808828669e-01 2.3620770329188473e-01 3.8159916619965717e-01  4.8474472238711114e-01 2.3610672018591128e-01 3.8164034792196300e-01  4.8474304605318452e-01 2.3604956985389283e-01 3.8166383595607767e-01  4.8474247332922948e-01 2.3602896144112537e-01 3.8167250900595512e-01  4.8474294092948772e-01 2.3604300814338799e-01 3.8166709501911344e-01  4.8474500970499773e-01 2.3610978667327442e-01 3.8164034674412922e-01  4.8474834714588211e-01 2.3621808650675452e-01 3.8159684044737036e-01  4.8475247757683704e-01 2.3635179833347786e-01 3.8154316227578250e-01  4.8475796140166777e-01 2.3652832900216489e-01 3.8147243667135389e-01  4.8476510236851900e-01 2.3675589141823877e-01 3.8138161802566484e-01  4.8477401777180906e-01 2.3703670268192176e-01 3.8127006495861249e-01  4.8478391437213136e-01 2.3734400100719993e-01 3.8114871402199724e-01  4.8479540160973000e-01 2.3769488224038077e-01 3.8101111060696180e-01  4.8480917080151709e-01 2.3810787277659023e-01 3.8085041729579439e-01  4.8482439159669216e-01 2.3855516425445183e-01 3.8067797044343815e-01  4.8484180298723317e-01 2.3905553542437247e-01 3.8048702951506813e-01  4.8486142095962514e-01 2.3960641625664272e-01 3.8027912907584777e-01  4.8488309011250330e-01 2.4020003370980253e-01 3.8005781818454809e-01  4.8490796319833906e-01 2.4086357130768885e-01 3.7981377400849731e-01  4.8493546899224865e-01 2.4157730432567603e-01 3.7955514044165678e-01  4.8496546359251319e-01 2.4233394883978268e-01 3.7928523638248607e-01  4.8499936459817383e-01 2.4316403480818993e-01 3.7899422908858721e-01  4.8503757559101013e-01 2.4407090781906701e-01 3.7868231844253836e-01  4.8507926543682373e-01 2.4502977661725275e-01 3.7835910983789994e-01  4.8512470824088549e-01 2.4604207707534448e-01 3.7802519528335132e-01  4.8517555219390307e-01 2.4713822965385390e-01 3.7767196564652089e-01  4.8523217637109761e-01 2.4831956662950169e-01 3.7730057265738731e-01  4.8529422433930408e-01 2.4957027557642542e-01 3.7691805977530857e-01  4.8536297865073719e-01 2.5090952477799167e-01 3.7652018252775288e-01  4.8543868885125391e-01 2.5233464658123966e-01 3.7610966873179863e-01  4.8552191336062622e-01 2.5384783928237348e-01 3.7568807035643081e-01  4.8561320974811539e-01 2.5545083636003135e-01 3.7525726078621846e-01  4.8571523124731514e-01 2.5717964138623506e-01 3.7481042963296668e-01  4.8582664174746087e-01 2.5900351472660565e-01 3.7435791113227357e-01  4.8594946743937384e-01 2.6094295083120944e-01 3.7389844164753228e-01  4.8608430034382027e-01 2.6300024076757239e-01 3.7343349594501762e-01  4.8623258628175287e-01 2.6518348763356719e-01 3.7296581119710109e-01  4.8639662723767679e-01 2.6751576506922020e-01 3.7249380628380330e-01  4.8657664715385107e-01 2.6998702062307184e-01 3.7202393356857122e-01  4.8677399858402859e-01 2.7260234710632658e-01 3.7155992804479682e-01  4.8699172411380082e-01 2.7538983828469604e-01 3.7110080255946065e-01  4.8723082718231164e-01 2.7834599110898189e-01 3.7065330830732501e-01  4.8749247059598777e-01 2.8147426557652722e-01 3.7022010346945211e-01  4.8777561455278318e-01 2.8475419396198381e-01 3.6980812097347610e-01  4.8845135060744493e-01 2.9214238321186226e-01 3.6905530863720076e-01  4.8883426020446175e-01 2.9612663765661190e-01 3.6873400629495257e-01  4.8925450472708226e-01 3.0035030673671070e-01 3.6845811488539965e-01  4.8971893389723181e-01 3.0486606522145959e-01 3.6822859935566093e-01  4.9022893194889516e-01 3.0965118598717140e-01 3.6806489233353806e-01  4.9078743932334790e-01 3.1472212720915604e-01 3.6796674225698439e-01  4.9140298564335716e-01 3.2011267314101483e-01 3.6795568489953545e-01  4.9207890111015457e-01 3.2583162406837801e-01 3.6803705302005080e-01  4.9282014042998229e-01 3.3188496955661084e-01 3.6822714572002196e-01  4.9363280793868491e-01 3.3828683226887274e-01 3.6854167713847830e-01  4.9452909097564846e-01 3.4509529266055650e-01 3.6899721717465955e-01  4.9550724519431361e-01 3.5225039114316165e-01 3.6961266634434847e-01  4.9658107913349558e-01 3.5981419527611874e-01 3.7040640677920400e-01  4.9775927669609704e-01 3.6778931856860342e-01 3.7140543409696891e-01  4.9904829860079081e-01 3.7616451030020859e-01 3.7263033070934248e-01  5.0045537342092505e-01 3.8492095762167261e-01 3.7410908316994873e-01  5.0198802924908215e-01 3.9404203971425567e-01 3.7586377353059158e-01  5.0365513655615834e-01 4.0350159628544913e-01 3.7792713118494359e-01  5.0546508678307234e-01 4.1326715533742181e-01 3.8032836080016452e-01  5.0741983197410223e-01 4.2326429052085957e-01 3.8308877921840911e-01  5.0951118865669065e-01 4.3336945224033940e-01 3.8621385440822165e-01  5.1176673780769999e-01 4.4359354550020808e-01 3.8977961659659210e-01  5.1416790786443267e-01 4.5376700872146741e-01 3.9377223859556093e-01  5.1670834068967753e-01 4.6376759154313679e-01 3.9820302950098846e-01  5.1938337577212179e-01 4.7347265945566963e-01 4.0309134961627052e-01  5.2217742111968724e-01 4.8273553015986831e-01 4.0843396130749110e-01  5.2507485304920642e-01 4.9142466459225853e-01 4.1422561150997661e-01  5.2805557819651172e-01 4.9941057192848159e-01 4.2045599542056966e-01  5.3110179890250686e-01 5.0659824069576620e-01 4.2710390448042973e-01  5.3419023053838188e-01 5.1288004337928583e-01 4.3415893903507302e-01  5.3729493092747471e-01 5.1818712902381570e-01 4.4157967055475839e-01  5.4039052107947438e-01 5.2247313599821277e-01 4.4932826279629912e-01  5.4344000699498285e-01 5.2569436364983413e-01 4.5734202920111439e-01  5.4644762927001467e-01 5.2787824368997016e-01 4.6564534697362336e-01  5.4937797306151170e-01 5.2902938343134320e-01 4.7416332506790654e-01  5.5215835658023993e-01 5.2918462592160842e-01 4.8268890046958618e-01  5.5478672151771802e-01 5.2844441178185930e-01 4.9119216626873685e-01  5.5724456928489097e-01 5.2691106540388333e-01 4.9959484904633827e-01  5.5942665679200720e-01 5.2481844757967411e-01 5.0746747051629804e-01  5.6132233518667474e-01 5.2235410073019894e-01 5.1469393213650882e-01  5.6294730305056906e-01 5.1968973045199207e-01 5.2123541954859676e-01  5.6413948035653405e-01 5.1737478074854748e-01 5.2626855267379591e-01  5.6490929975134252e-01 5.1567486227957648e-01 5.2965706033669790e-01  5.6515055990541674e-01 5.1499567987428807e-01 5.3083068571770264e-01  5.6478506888249447e-01 5.1555957257531293e-01 5.2942040663231116e-01  5.6366589746133466e-01 5.1747554070378787e-01 5.2492639434412947e-01  5.6164716251723623e-01 5.2042087814124371e-01 5.1712630821937178e-01  5.5854345287039509e-01 5.2365308908172425e-01 5.0590626139922856e-01  5.5409206957329737e-01 5.2588430556838750e-01 4.9116802875597315e-01  5.4815603049216355e-01 5.2511401853392914e-01 4.7335814784006230e-01  5.4074438025761018e-01 5.1876310456099617e-01 4.5346901424543312e-01  5.3209610260216256e-01 5.0400497255894883e-01 4.3296867122896299e-01  5.2267731863792921e-01 4.7907073497069524e-01 4.1331283919214790e-01  5.1313235204733076e-01 4.4374234737931079e-01 3.9620477379893532e-01  5.0431780711637852e-01 4.0091608743234958e-01 3.8313079408741552e-01  4.9688251942942646e-01 3.5511156440930514e-01 3.7522797811163594e-01  4.8783995658151552e-01 2.7511865192496293e-01 3.7617822412115631e-01  4.8550596616658931e-01 2.4319535582626142e-01 3.8208544198343092e-01  4.8502845811659345e-01 2.2154313213588375e-01 3.9168910615651492e-01  4.8525663315892936e-01 2.0579186460284146e-01 4.0170576765188071e-01  4.8585805523306042e-01 1.9524446187573691e-01 4.1073620414586781e-01  4.8648442874222014e-01 1.8886944987975621e-01 4.1756199617651824e-01  4.8690161173246460e-01 1.8563098660107480e-01 4.2154033785863976e-01  4.8697400125299523e-01 1.8512270625277849e-01 4.2220014348818552e-01  4.8669292998062158e-01 1.8715820039884926e-01 4.1960058340277390e-01  4.8614637401643512e-01 1.9190910567950237e-01 4.1409772438452469e-01  4.8550092034814174e-01 2.0014574068181243e-01 4.0612480574191712e-01  4.8505163991570888e-01 2.1259716558982775e-01 3.9681285549408224e-01  4.8513718925418758e-01 2.3011060559797292e-01 3.8745757630139438e-01  4.8610688619421200e-01 2.5344458962442623e-01 3.7939003945735089e-01  4.8832825851569678e-01 2.8328525056742382e-01 3.7395688169782593e-01  4.9202064204563423e-01 3.1903076786208351e-01 3.7217190114466758e-01  4.9722238617901798e-01 3.5857872843398370e-01 3.7476315012979672e-01  5.0370793867518915e-01 3.9881830827902814e-01 3.8149762438369783e-01  5.1108898020734539e-01 4.3616909494445671e-01 3.9190185228161373e-01  5.1882762982459918e-01 4.6764606671146780e-01 4.0496218475251650e-01  5.2642487219650191e-01 4.9173335673684965e-01 4.1962289255381635e-01  5.3337377618135806e-01 5.0841359339253489e-01 4.3452197827842187e-01  5.3931652978180644e-01 5.1874192554453513e-01 4.4845358791714757e-01  5.4414794175374470e-01 5.2445590524977315e-01 4.6072051943173586e-01  5.4789056193792141e-01 5.2719961858870279e-01 4.7087747689586518e-01  5.5060743517431998e-01 5.2824526442113839e-01 4.7865244433823295e-01  5.5243029729441806e-01 5.2849935400615167e-01 4.8406754816085118e-01  5.5347887765069836e-01 5.2851233305895984e-01 4.8723318107625357e-01  5.5389093091849484e-01 5.2855391736913881e-01 4.8843703625073404e-01  5.5377529411387538e-01 5.2871102486672383e-01 4.8796522878898890e-01  5.5323029320798112e-01 5.2895145424098311e-01 4.8613384336087129e-01  5.5232381649813367e-01 5.2919281761462678e-01 4.8319069427381611e-01  5.5113794575142261e-01 5.2932257294055474e-01 4.7944174931906752e-01  5.4971655219328419e-01 5.2924054494851269e-01 4.7507144027016990e-01  5.4816568798871124e-01 5.2884756347244355e-01 4.7045155789584719e-01  5.4647856677491813e-01 5.2809848465271236e-01 4.6557802970510104e-01  5.4468875324027421e-01 5.2694609871003151e-01 4.6056553047938842e-01  5.4281214371156827e-01 5.2535370940090287e-01 4.5547334466460893e-01  5.4085952327403453e-01 5.2328980987818230e-01 4.5033749782657811e-01  5.3884476818389015e-01 5.2072677242448262e-01 4.4520615685859005e-01  5.3679773721523150e-01 5.1767829900938467e-01 4.4015701700698323e-01  5.3471970563188276e-01 5.1412981610995290e-01 4.3518922964773826e-01  5.3259466988041504e-01 5.1002514080536676e-01 4.3027021047898423e-01  5.3046036163244881e-01 5.0542606590693617e-01 4.2548027192342108e-01  5.2832364452896785e-01 5.0033486082446510e-01 4.2083552773042088e-01  5.2618656927967378e-01 4.9475764568511676e-01 4.1633266975703082e-01  5.2405192127100098e-01 4.8869666108506266e-01 4.1197545251894402e-01  5.2196489734437967e-01 4.8228011221073069e-01 4.0785288300846734e-01  5.1990114348076932e-01 4.7546116578901210e-01 4.0390912825901182e-01  5.1789360792477879e-01 4.6837260781534606e-01 4.0018780417918631e-01  5.1593322853334345e-01 4.6098588073312574e-01 3.9668903570432895e-01  5.1404309311884155e-01 4.5344074890051994e-01 3.9342235484743254e-01  5.1223315012403525e-01 4.4580111573627801e-01 3.9041079063739081e-01  5.1050057362887169e-01 4.3809906399862414e-01 3.8763388501230889e-01  5.0884858903081476e-01 4.3038760782477958e-01 3.8509039984172466e-01  5.0728281465579206e-01 4.2273759034342562e-01 3.8277566422344472e-01  5.0440255820915592e-01 4.0774220217251689e-01 3.7879413366558623e-01  5.0309039023277946e-01 4.0048949405813283e-01 3.7710976492884229e-01  5.0185586371990498e-01 3.9340625984699701e-01 3.7561093271858753e-01  5.0069991502725841e-01 3.8653591079644040e-01 3.7428551103077817e-01  4.9961836963432438e-01 3.7988521153858601e-01 3.7312294209375002e-01  4.9860697919072849e-01 3.7345948064463014e-01 3.7210937114470688e-01  4.9766251977475245e-01 3.6726620513775898e-01 3.7123424807178729e-01  4.9678089117166818e-01 3.6130618231251416e-01 3.7048502550964096e-01  4.9595822193777833e-01 3.5557713645132372e-01 3.6985179027110981e-01  4.9519091105755730e-01 3.5007711682891135e-01 3.6932399303813207e-01  4.9447590958433402e-01 3.4480385001405817e-01 3.6889415262530323e-01  4.9380943900378665e-01 3.3975285381042891e-01 3.6855022452116826e-01  4.9318671358324195e-01 3.3490230688612194e-01 3.6828618158855247e-01  4.9260486241827317e-01 3.3024742237382060e-01 3.6809392460685536e-01  4.9206442380213894e-01 3.2580855529791414e-01 3.6796739868193529e-01  4.9155703609078982e-01 3.2152899580226924e-01 3.6790064127662392e-01  4.9108346629356076e-01 3.1742961865047209e-01 3.6788769150855993e-01  4.9064450972420287e-01 3.1353157732188425e-01 3.6792195821012341e-01  4.9023394798569547e-01 3.0978844173348019e-01 3.6800193616886262e-01  4.8984994175270263e-01 3.0619941569271586e-01 3.6811911875983222e-01  4.8949132881576696e-01 3.0275914350278982e-01 3.6827292376319959e-01  4.8915673119582381e-01 2.9946617461310665e-01 3.6845807076787285e-01  4.8884363757179433e-01 2.9630531133790189e-01 3.6867156734694900e-01  4.8855092268971806e-01 2.9327258685092317e-01 3.6891100198091420e-01  4.8827827924263145e-01 2.9037444169333487e-01 3.6917183221044297e-01  4.8802360685221818e-01 2.8759593436130443e-01 3.6945265509778069e-01  4.8778452014660728e-01 2.8491934335075819e-01 3.6975204834057845e-01  4.8756279367049837e-01 2.8237109110247360e-01 3.7006444223683660e-01  4.8735475347673485e-01 2.7991583285774863e-01 3.7039179449319670e-01  4.8716038632444980e-01 2.7756099540109769e-01 3.7073005574838769e-01  4.8697905091537447e-01 2.7530461092289393e-01 3.7107754482229066e-01  4.8680975056173997e-01 2.7314053034500468e-01 3.7143289616929448e-01  4.8665173244132831e-01 2.7106534773528224e-01 3.7179448546861782e-01  4.8650404539891651e-01 2.6907208898953910e-01 3.7216160850955660e-01  4.8636568147701120e-01 2.6715235689342137e-01 3.7253405789650712e-01  4.8623747629605835e-01 2.6532393027729523e-01 3.7290625214282647e-01  4.8611829117835864e-01 2.6357606080524487e-01 3.7327860985341643e-01  4.8600586567470139e-01 2.6188010112971388e-01 3.7365579960305645e-01  4.8590173138499326e-01 2.6026426531721542e-01 3.7402989430178468e-01  4.8580528512161342e-01 2.5872412761803565e-01 3.7440043198025652e-01  4.8571513110561937e-01 2.5724271700310836e-01 3.7476987490335739e-01  4.8563133074288312e-01 2.5582585342791209e-01 3.7513530913570986e-01  4.8555317620310195e-01 2.5446498982023752e-01 3.7549804744235388e-01  4.8548106594579304e-01 2.5317319458713822e-01 3.7585275285950975e-01  4.8541381444305115e-01 2.5193214688899601e-01 3.7620378819987965e-01  4.8535158095530584e-01 2.5074995524253507e-01 3.7654738256787601e-01  4.8529372492831008e-01 2.4961842182211141e-01 3.7688490234495170e-01  4.8523984134880088e-01 2.4853352354357144e-01 3.7721656358074468e-01  4.8519052833846349e-01 2.4751051811545077e-01 3.7753694762196915e-01  4.8514508552284658e-01 2.4654026368714962e-01 3.7784753519134279e-01  4.8510262939244247e-01 2.4560739753969330e-01 3.7815246745207087e-01  4.8506378092197766e-01 2.4472889486759999e-01 3.7844540826127698e-01  4.8502819353882037e-01 2.4390076901297444e-01 3.7872685135724538e-01  4.8499535898756657e-01 2.4311530178022456e-01 3.7899848502930272e-01  4.8496510273810423e-01 2.4237138246560891e-01 3.7926008448491599e-01  4.8493761345747910e-01 2.4167699511395696e-01 3.7950811006525709e-01  4.8559750323617390e-01 2.5524123288586675e-01 3.7528984811421523e-01  5.3412887189406766e-01 5.1302701493681291e-01 4.3381474361647621e-01  4.8490157838526377e-01 2.4069572440918291e-01 3.7987498390412555e-01  5.0657564859186099e-01 4.1916442402368675e-01 3.8176665903233792e-01  4.8492951883246171e-01 2.4146896872325574e-01 3.7958311455872784e-01  5.6569845056515633e-01 5.1341562335817315e-01 5.3352416530675728e-01  4.8557668146688043e-01 2.5481527159206413e-01 3.7542637454734057e-01  4.8829043205068712e-01 2.9042983541469597e-01 3.6921050533021504e-01  4.8921583382864442e-01 2.9225854650998945e-01 3.7345526792979727e-01  5.3280791922953952e-01 5.1016323579133482e-01 4.3097841962210898e-01  4.8659018844787327e-01 2.7024051785516151e-01 3.7194430558786806e-01  5.5335711284211309e-01 5.2883106587626183e-01 4.8661074247570341e-01  5.4846878802481913e-01 5.2874249036535059e-01 4.7150434638837591e-01  4.8767626909619566e-01 2.8368286379344315e-01 3.6990055121159454e-01  5.1306023586996996e-01 4.4915637321129781e-01 3.9191211111683694e-01  4.8479308932551984e-01 2.3762538431581254e-01 3.8103811284963501e-01  5.4689675498916690e-01 5.2619870680563785e-01 4.6844477970849929e-01  5.0070768972375757e-01 3.8094552222455363e-01 3.7819841107522661e-01  4.8474797258546415e-01 2.3620890488299348e-01 3.8159993116917396e-01  4.8966002264464414e-01 3.0438647651165618e-01 3.6819614537967688e-01  5.0128793240045411e-01 3.8992180020271006e-01 3.7504769129002424e-01  4.9291341890193341e-01 3.3273305946620818e-01 3.6818859603424281e-01  4.8474974197153198e-01 2.3627291370719666e-01 3.8157289335450961e-01  4.8516556726662091e-01 2.0757119259593926e-01 4.0022494776268708e-01  4.9420398566730034e-01 3.4265191384118104e-01 3.6882143222323266e-01  4.9639875081658946e-01 3.5866264582372975e-01 3.7018439177798967e-01  4.8478100918850359e-01 2.3727810217541315e-01 3.8116971919212062e-01  4.8521991573850742e-01 2.4812410454751141e-01 3.7734379192320089e-01  5.2099174260511982e-01 4.7911294392360620e-01 4.0598233526616323e-01  5.5217626463810632e-01 5.2547826953880994e-01 4.8567522140066899e-01  4.8632618704206099e-01 2.6652413733615166e-01 3.7269105824569060e-01  4.8509952537690187e-01 2.4548472655201148e-01 3.7820816628357751e-01  4.8674701482226113e-01 1.8674394345357645e-01 4.2011432784527902e-01  4.9115921459168027e-01 3.1799731249977159e-01 3.6795104429204423e-01  5.0018706633446974e-01 3.8340704830052780e-01 3.7372636457629388e-01  4.8482884499197482e-01 2.3871770401550985e-01 3.8060828424513005e-01  5.5862584564674189e-01 5.2555252028953192e-01 5.0461938224888714e-01  5.4398290159122686e-01 5.2636647389435731e-01 4.5865126076010199e-01  4.8505030275650340e-01 2.4441788461379171e-01 3.7855050342409757e-01  4.8596357246800492e-01 2.6123037479068500e-01 3.7380412095247395e-01  5.1300485004416208e-01 4.4910413065604821e-01 3.9168460057541704e-01  5.1912815897109388e-01 4.6677619197659870e-01 4.0688142976571545e-01  4.8709913219710749e-01 2.7672804830773118e-01 3.7089427724864144e-01  4.8476706523121910e-01 2.3681947360144126e-01 3.8135596837312524e-01  4.8589924273406904e-01 2.6015788343107160e-01 3.7408187153179645e-01  4.8511184487194742e-01 2.1192196061814036e-01 3.9752927730519000e-01  5.6354334410283380e-01 5.1698403496218226e-01 5.2499387658784424e-01  4.8951468161063355e-01 3.0290021225215502e-01 3.6831964095934078e-01  5.2384319892763420e-01 4.8782593079978070e-01 4.1174280856159018e-01  4.8538720359404453e-01 2.5143015745511349e-01 3.7634871618143234e-01  4.8498966836949797e-01 2.4293024485784045e-01 3.7907536696481936e-01  4.8841273616324565e-01 2.9181283123017820e-01 3.6903848465051226e-01  5.3093863121352225e-01 5.0269449051340809e-01 4.2942765253511422e-01  4.9084885773370940e-01 3.1535865067078445e-01 3.6790031232880205e-01  5.2734125924574771e-01 4.9781484393853170e-01 4.1875676454550731e-01  4.8527036346772667e-01 2.4909427066938608e-01 3.7706233120991178e-01  4.8707962029