<?xml version="1.0"?>
<VTKFile type="UnstructuredGrid"  version="0.1"  >
<UnstructuredGrid>
<Piece  NumberOfPoints="4940" NumberOfCells="9650">
<Points>
<DataArray  type="Float64"  NumberOfComponents="3"  format="ascii">500 250 0  0 250 0  250 500 0  250 0 0  256.8885856082646 499.9050767557906 0  263.7719401218049 499.6203791065173 0  270.6448364229772 499.1461232471188 0  277.5020553257866 498.4826693209355 0  284.3383895508592 497.6305211460281 0  291.1486476865662 496.5903258312597 0  297.9276581259182 495.3628732847843 0  304.6702729675493 493.9490956196674 0  311.3713719748657 492.3500664368026 0  318.0258664141369 490.5670000199653 0  324.6287029687753 488.6012504015818 0  331.1748675330201 486.4543103455647 0  337.6593890460416 484.1278102064655 0  344.0773432429536 481.6235166997244 0  350.4238564271474 478.9433315480048 0  356.694109139292 476.0892900492477 0  362.88333985546 473.0635595140469 0  368.9868485575419 469.8684376402048 0  375.0000003153078 466.5063507640667 0  380.9182288257928 462.9798520074548 0  386.7370398729688 459.2916193419558 0  392.4520147244077 455.444453565817 0  398.0588135356345 451.4412761437442 0  403.5531785622926 447.285127045646 0  408.9309374414144 442.9791624087773 0  414.1880064015299 438.5266521049243 0  419.3203932989752 433.9309773069245 0  424.324200661095 429.1956279150535 0  429.1956286596235 424.3241998957182 0  433.9309780058756 419.3203925397119 0  438.5266527445345 414.1880056671062 0  442.9791630130591 408.9309367076756 0  447.2851276060475 403.5531778422888 0  451.4412766621026 398.0588128303826 0  455.4444540361634 392.4520140460735 0  459.2916197786263 386.7370392045948 0  462.9798524073514 380.9182281752347 0  466.5063511234856 374.9999996927758 0  469.8684379657123 368.9868479560565 0  473.0635598144817 362.8833392617846 0  476.0892903190255 356.6941085676214 0  478.9433317963513 350.4238558609745 0  481.6235169154735 344.0773427117675 0  484.12781039012 337.6593885555221 0  486.4543105028062 331.1748670749914 0  488.601250531677 324.6287025528375 0  490.5670001317469 318.0258660188321 0  492.3500665291326 311.3713716102628 0  493.949095695951 304.6702726271575 0  495.3628733416623 297.9276578347343 0  496.5903258712341 291.1486474470129 0  497.6305211749058 284.3383893426084 0  498.4826693388848 277.502055163614 0  499.1461232580606 270.6448362909296 0  499.6203791109319 263.7719400417897 0  499.9050767571306 256.8885855596534 0  499.9050767559877 243.1114143988867 0  499.6203791069493 236.2280598860241 0  499.1461232485393 229.3551635941651 0  498.4826693235677 222.4979446979962 0  497.6305211491849 215.6616104719064 0  496.5903258357701 208.8513523404629 0  495.3628732906988 202.0723419043604 0  493.9490956264813 195.3297270628552 0  492.3500664487791 188.6286280724281 0  490.5670000344809 181.9741336371959 0  488.6012504175981 175.3712970824318 0  486.4543103623226 168.8251325157939 0  484.1278102222298 162.3406109960628 0  481.6235167152198 155.9226567951971 0  478.9433315621651 149.5761436051346 0  476.0892900516498 143.3058908657982 0  473.063559513628 137.1166601437124 0  469.8684376406648 131.0131514433083 0  466.5063507675389 124.9999996907064 0  462.9798520124137 119.0817711822745 0  459.2916193464549 113.2629601339176 0  455.4444535642773 107.5479852733717 0  451.4412761528674 101.9411864767781 0  447.2851270583545 96.44682145403524 0  442.9791624165781 91.06906256805769 0  438.5266521117469 85.81199360630404 0  433.9309773156125 80.67960671046254 0  429.1956279150353 75.67579933888632 0  424.3241998888952 70.80437133373906 0  419.3203925223282 66.06902197812161 0  414.1880056411937 61.47334723289828 0  408.9309366751728 57.0208369601728 0  403.5531778009394 52.71487236176898 0  398.058812796452 48.55872331295853 0  392.4520140187753 44.55554594490843 0  386.7370391799677 40.70838020528396 0  380.9182281475119 37.02014757560744 0  374.9999996718656 33.49364886444181 0  368.9868479340393 30.13156202237255 0  362.8833392380029 26.93644017348339 0  356.6941085456942 23.91070967062674 0  350.4238558420009 21.0566681953261 0  344.0773426899492 18.37648307566465 0  337.6593885328982 15.87218960140942 0  331.1748670549786 13.54568949032341 0  324.6287025315056 11.39874946165088 0  318.0258660010876 9.432999863235466 0  311.3713716017894 7.649933468721599 0  304.6702726190621 6.050904302234756 0  297.9276578269805 4.637126656823085 0  291.148647441857 3.409674127905504 0  284.3383893425031 2.369478825079682 0  277.502055159398 1.517330660648639 0  270.6448362875833 0.853876741662134 0  263.7719400401456 0.3796208889774277 0  256.8885855592052 0.09492324285704967 0  243.1114143979462 0.09492324403817065 0  236.2280598850882 0.3796208931023841 0  229.3551635938215 0.8538767514891958 0  222.4979446968584 1.517330676558146 0  215.6616104703111 2.369478851036291 0  208.8513523382973 3.409674164591252 0  202.0723419066374 4.637126708856528 0  195.3297270659513 6.050904372824903 0  188.628628074828 7.649933550613184 0  181.9741336377093 9.432999965373938 0  175.3712970793675 11.39874958336037 0  168.8251325057572 13.54568964112298 0  162.340610986655 15.87218978129263 0  155.9226567874317 18.37648328793418 0  149.576143602509 21.05666843898663 0  143.3058908718157 23.91070994551046 0  137.1166601505524 26.93644048291054 0  131.0131514451933 30.13156235831508 0  124.9999996848412 33.49364923584736 0  119.0817711715717 37.0201479941652 0  113.2629601211624 40.70838066187849 0  107.5479852622251 44.55554644345162 0  101.9411864693332 48.55872385260452 0  96.44682143286516 52.71487295812284 0  91.06906254351222 57.02083760363669 0  85.81199358272519 61.4733479087879 0  80.67960667988106 66.06902271253972 0  75.67579930062769 70.80437212218331 0  70.80437129287643 75.67580015310926 0  66.06902193673014 80.67960752263491 0  61.47334718684866 85.81199441168215 0  57.02083692524275 91.0690633672404 0  52.71487232786438 96.44682224262129 0  48.55872328070024 101.941187247437 0  44.55554591578033 107.5479860232332 0  40.7083801742321 113.2629608675606 0  37.02014754791168 119.0817718975441 0  33.49364883372994 125.000000381329 0  30.13156199866361 131.0131521097709 0  26.9364401549829 137.1166607985551 0  23.91070965524918 143.3058914868915 0  21.05666818346614 149.576144185037 0  18.37648306853811 155.9226573275967 0  15.8721895918909 162.3406114925245 0  13.54568948170046 168.8251329701392 0  11.39874945301878 175.3712974960928 0  9.432999857087736 181.9741340206533 0  7.649933466342702 188.6286284076045 0  6.050904301250966 195.3297273853278 0  4.637126656808988 202.0723421730917 0  3.409674127767772 208.8513525589684 0  2.369478824521138 215.6616106615248 0  1.517330660909465 222.4979448382452 0  0.8538767414496533 229.355163714981 0  0.3796208887135322 236.2280599646376 0  0.09492324266324204 243.1114144478261 0  0.0949232442452228 256.8885856095658 0  0.3796208935834784 263.7719401236316 0  0.8538767530323526 270.6448364248016 0  1.517330679476544 277.5020553295092 0  2.369478854618649 284.3383895555228 0  3.409674170191892 291.1486476952655 0  4.6371267162381 297.9276581311522 0  6.050904381420935 304.6702729724059 0  7.649933562385399 311.3713719716595 0  9.43299997979841 318.0258664133013 0  11.3987495994252 324.6287029719946 0  13.54568965885832 331.174867545904 0  15.87218979367188 337.6593890464085 0  18.37648329843151 344.0773432384132 0  21.05666844777872 350.423856417535 0  23.91070995156048 356.6941091410045 0  26.93644048988043 362.8833398632205 0  30.13156235982007 368.9868485575877 0  33.49364924138357 375.0000003247478 0  37.0201480006036 380.9182288389023 0  40.70838066758398 386.7370398875706 0  44.55554644477201 392.4520147396792 0  48.55872386086904 398.0588135419111 0  52.71487295981296 403.5531785693063 0  57.02083760525949 408.9309374584583 0  61.47334790862246 414.1880064170849 0  66.06902271205095 419.320393319588 0  70.80437211216579 424.3242006890749 0  75.67580013809859 429.195628692521 0  80.6796075127923 433.930978054209 0  85.81199439754931 438.5266528008431 0  91.06906334717917 442.9791630582355 0  96.44682221438322 447.2851276501571 0  101.9411872243843 451.441276702356 0  107.5479859945825 455.4444540643537 0  113.2629608446994 459.2916198108319 0  119.0817718768376 462.9798524393601 0  125.0000003647644 466.5063511567065 0  131.0131521012763 469.8684379967393 0  137.1166607840049 473.0635598376539 0  143.3058914748804 476.0892903390826 0  149.5761441732679 478.9433318113714 0  155.9226573130112 481.6235169255377 0  162.3406114779862 484.1278104026658 0  168.8251329570439 486.4543105138039 0  175.3712974805475 488.601250542119 0  181.9741340135204 490.5670001408953 0  188.6286284005059 492.3500665318597 0  195.3297273788229 493.9490956972913 0  202.0723421640089 495.3628733414168 0  208.8513525529672 496.5903258712308 0  215.6616106544547 497.6305211744985 0  222.4979448327038 498.4826693384772 0  229.3551637102845 499.1461232581612 0  236.2280599621369 499.6203791111485 0  243.1114144470173 499.9050767573145 0  155.2373389820306 474.8197567317462 0  25.36256300907667 153.9152755065208 0  432.3709625126712 412.6214396304305 0  6.013151705810699 246.637913163471 0  246.6379131630491 493.986848294322 0  338.6995838441862 22.68244767887072 0  477.3175523131281 338.6995838660569 0  493.9868482700757 246.6379131399102 0  246.6201155078769 6.218451882810491 0  417.6179310263282 72.7156044707053 0  102.2232990934413 445.0100869616822 0  63.66330858966404 92.20354579482142 0  391.3105220491464 50.73522820883105 0  72.79295043967942 418.0702734974704 0  448.290574428537 108.25674339002 0  402.4604651193511 440.7462829841712 0  97.55317348421397 59.11376320116034 0  136.7376477664901 33.58246472647134 0  363.3288394375288 465.6947312928271 0  44.0678766556007 381.0860953771871 0  469.6905266180034 142.3890690100806 0  22.68244791668644 338.6995843487432 0  338.699584349159 477.317552078365 0  173.389488083762 18.6681884918202 0  483.4809734778481 179.7121987795732 0  13.50237455842738 306.4709525540879 0  305.9825168523021 487.24416992
[...]
<PointData  Vectors="f_12"> 
<DataArray  type="Float64"  Name="f_12"  NumberOfComponents="3" format="ascii">5.1025575669631251e-01 4.3708508080940389e-01 3.8717668388407411e-01  5.3854309933255118e-01 5.2047249365060444e-01 4.4431979283797862e-01  5.0049456594938035e-01 3.8542598208943230e-01 3.7396409226822758e-01  4.8688921062421153e-01 2.7037325713385663e-01 3.7368455344865792e-01  5.0034934909182616e-01 3.8453936179973941e-01 3.7380618702446250e-01  5.0021698417419902e-01 3.8372764011983179e-01 3.7366348420621320e-01  5.0009042615160693e-01 3.8294840234606559e-01 3.7352817763367679e-01  4.9997488677754903e-01 3.8223439955225497e-01 3.7340556037763023e-01  4.9986793962357534e-01 3.8157110394266613e-01 3.7329295182650479e-01  4.9976979271056049e-01 3.8096045978464199e-01 3.7319027673522948e-01  4.9968027087127043e-01 3.8040182694773533e-01 3.7309723893129754e-01  4.9959878158429283e-01 3.7989190702487313e-01 3.7301307672491590e-01  4.9952581863475021e-01 3.7943418583727917e-01 3.7293814179646506e-01  4.9946174383178721e-01 3.7903129181958173e-01 3.7287271464897653e-01  4.9941055443106869e-01 3.7870876162575734e-01 3.7282068182913619e-01  4.9935894992758628e-01 3.7838310059543245e-01 3.7276845948830556e-01  4.9932756806304224e-01 3.7818463069692321e-01 3.7273687713263154e-01  4.9929747386178247e-01 3.7799410752487217e-01 3.7270671014058054e-01  4.9927761364549078e-01 3.7786810551825833e-01 3.7268696038891808e-01  4.9926561732619140e-01 3.7779178382990852e-01 3.7267518883674583e-01  4.9926080750614066e-01 3.7776093718568754e-01 3.7267064942894285e-01  4.9926881948056234e-01 3.7781113985104153e-01 3.7267911287978822e-01  4.9928617435712308e-01 3.7792039561370028e-01 3.7269705049958113e-01  4.9930757821899890e-01 3.7805520309096796e-01 3.7271909019958149e-01  4.9933855170196950e-01 3.7825032927563174e-01 3.7275089492002195e-01  4.9938144923892142e-01 3.7852036203456862e-01 3.7279494056786144e-01  4.9943710590580748e-01 3.7887034530601499e-01 3.7285214004032657e-01  4.9949680143343000e-01 3.7924510130446981e-01 3.7291372059060052e-01  4.9956574956008487e-01 3.7967711191336639e-01 3.7298511447431404e-01  4.9964987722147636e-01 3.8020309107929873e-01 3.7307257063900445e-01  4.9974013567819453e-01 3.8076588807923184e-01 3.7316696276256250e-01  4.9984218681582737e-01 3.8140029655873176e-01 3.7327432856778348e-01  4.9995531645664348e-01 3.8210133475783831e-01 3.7339415410319077e-01  5.0007676544786961e-01 3.8285124221146244e-01 3.7352371602379647e-01  5.0021481245506672e-01 3.8370024597745223e-01 3.7367210951937829e-01  5.0036324712443403e-01 3.8460919088477730e-01 3.7383310086320681e-01  5.0051934769835327e-01 3.8556072375636707e-01 3.7400388259743755e-01  5.0069248832746815e-01 3.8661078506994173e-01 3.7419513645384106e-01  5.0088357107894799e-01 3.8776321653625262e-01 3.7440846358658347e-01  5.0108459911336145e-01 3.8896856992132095e-01 3.7463530804691630e-01  5.0129536676236552e-01 3.9022451969583161e-01 3.7487580993532388e-01  5.0152525525483871e-01 3.9158530981196027e-01 3.7514120913090487e-01  5.0177470789758394e-01 3.9305165668429715e-01 3.7543257285391468e-01  5.0203781661831681e-01 3.9458634087786137e-01 3.7574397703876672e-01  5.0232035469744607e-01 3.9622101699088857e-01 3.7608280553401818e-01  5.0262128920037097e-01 3.9794745935506093e-01 3.7644846646186958e-01  5.0294057841360185e-01 3.9976261842752947e-01 3.7684184073440002e-01  5.0327826162612266e-01 4.0166402675414237e-01 3.7726400644802066e-01  5.0364483640060009e-01 4.0370669729366504e-01 3.7772898119036563e-01  5.0403100180037363e-01 4.0583585007654160e-01 3.7822609005184493e-01  5.0444103092358350e-01 4.0806991912463214e-01 3.7876244201083220e-01  5.0487665243203428e-01 4.1041562368038326e-01 3.7934081911532330e-01  5.0533790842816440e-01 4.1286703615230802e-01 3.7996340799920408e-01  5.0583251136199114e-01 4.1546022924785381e-01 3.8064183428573267e-01  5.0635593307290017e-01 4.1816497730764590e-01 3.8137172822611054e-01  5.0690860918075065e-01 4.2097715782255862e-01 3.8215576158066877e-01  5.0749853941464551e-01 4.2393061635513035e-01 3.8300673679321767e-01  5.0812365409086613e-01 4.2700656501312950e-01 3.8392461053777605e-01  5.0878393141408684e-01 4.3019797939893190e-01 3.8490945333578674e-01  5.0947246038950178e-01 4.3346851363752009e-01 3.8595514437542100e-01  5.1103630353969687e-01 4.4063528054126327e-01 3.8840204844125775e-01  5.1187419611791285e-01 4.4434829611833099e-01 3.8974919581058626e-01  5.1275892727364758e-01 4.4817017426148548e-01 3.9120004245975165e-01  5.1370763472497105e-01 4.5216123788482437e-01 3.9278251807716463e-01  5.1471066665026544e-01 4.5625776002423196e-01 3.9449213826928936e-01  5.1577196811207737e-01 4.6046296911081291e-01 3.9633330240623788e-01  5.1689771190743561e-01 4.6477171231224113e-01 3.9832988327108443e-01  5.1809086050565567e-01 4.6917699873546087e-01 4.0048840481484238e-01  5.1935142140151369e-01 4.7365164975078655e-01 4.0281766463235424e-01  5.2068149567204280e-01 4.7817539996510866e-01 4.0532975806408145e-01  5.2209760054477716e-01 4.8277171047615869e-01 4.0806276781123463e-01  5.2358365070468837e-01 4.8735468296067952e-01 4.1099892345587935e-01  5.2515456325271437e-01 4.9193739798646774e-01 4.1417447209559966e-01  5.2681671603471636e-01 4.9649344603487966e-01 4.1761796769697412e-01  5.2856843570446432e-01 5.0097436441462606e-01 4.2133861916722565e-01  5.3040894809981265e-01 5.0532894375222936e-01 4.2535398711263106e-01  5.3234059324617933e-01 5.0951580593997192e-01 4.2968367557760906e-01  5.3436486185569032e-01 5.1348055168825246e-01 4.3435554242424429e-01  5.3648549317846328e-01 5.1717313943162346e-01 4.3940129918473370e-01  5.3869755892229032e-01 5.2052592360614869e-01 4.4483436697817336e-01  5.4098104976791006e-01 5.2345470557441154e-01 4.5063269151794622e-01  5.4336474089980613e-01 5.2590637079149771e-01 4.5691825210442005e-01  5.4581696731372498e-01 5.2779099419782527e-01 4.6364116245331605e-01  5.4832891683443041e-01 5.2903851668441682e-01 4.7081907969521763e-01  5.5088417592765893e-01 5.2956534132320754e-01 4.7845845871829917e-01  5.5345769244483067e-01 5.2930379675115713e-01 4.8653716050143886e-01  5.5602237147121925e-01 5.2820248605409648e-01 4.9502260774227502e-01  5.5854416780607286e-01 5.2622920680987118e-01 5.0385782284858216e-01  5.6099017993672717e-01 5.2339507395030693e-01 5.1295975557861340e-01  5.6331759979039930e-01 5.1972378776953976e-01 5.2222052921199613e-01  5.6548669721427325e-01 5.1531571509535878e-01 5.3148306253176303e-01  5.6746110976892605e-01 5.1031267761062538e-01 5.4057254238119745e-01  5.6920286107981677e-01 5.0491864451551149e-01 5.4926455355429749e-01  5.7070790399242954e-01 4.9932293847400644e-01 5.5742892537259092e-01  5.7196110706706349e-01 4.9379962873186617e-01 5.6484254501133668e-01  5.7294477328763382e-01 4.8872242998205534e-01 5.7119665173803236e-01  5.7368177651579544e-01 4.8433310759500187e-01 5.7638085241169823e-01  5.7418947565615186e-01 4.8085633769326402e-01 5.8028470537565258e-01  5.7445193513296378e-01 4.7873408481037522e-01 5.8254532815309601e-01  5.7447487250040696e-01 4.7813324672039598e-01 5.8305895618121018e-01  5.7425574161321558e-01 4.7903204623479462e-01 5.8184168635462086e-01  5.7367476850403787e-01 4.8200867643749995e-01 5.7815294235384884e-01  5.7265051898904473e-01 4.8686892753523126e-01 5.7191672252638537e-01  5.7096164695676332e-01 4.9370342903020875e-01 5.6246570158816789e-01  5.6831898672527748e-01 5.0199682756969433e-01 5.4935118505920411e-01  5.6430896197844471e-01 5.1077387746507275e-01 5.3201162477586483e-01  5.5853629596895571e-01 5.1795360485219688e-01 5.1045738665730256e-01  5.5074250837666994e-01 5.2033445465445949e-01 4.8534785478388420e-01  5.4095005791237283e-01 5.1371045749030786e-01 4.5816192710400488e-01  5.2985931007810982e-01 4.9460322044833810e-01 4.3135348136913260e-01  5.1868899210108710e-01 4.6282280966838307e-01 4.0795378522529607e-01  5.0877360272108463e-01 4.2263856197166244e-01 3.9036177908294162e-01  5.0085513799817460e-01 3.8114043695051458e-01 3.7894893079290298e-01  4.9505299282114196e-01 3.4361987958957940e-01 3.7302090196294163e-01  4.9109546897235573e-01 3.1282438320227191e-01 3.7104898769527506e-01  4.8851134010992286e-01 2.8867837674698832e-01 3.7168709053023480e-01  4.8595561320246516e-01 2.5713151662357342e-01 3.7631104082743716e-01  4.8525967332954895e-01 2.4567869721325408e-01 3.7911057924206526e-01  4.8496660121082719e-01 2.3850493405253378e-01 3.8159629180691773e-01  4.8478638741585078e-01 2.3296649695096158e-01 3.8375976376071808e-01  4.8468883518807498e-01 2.2900648169867030e-01 3.8546750964881482e-01  4.8464390481466374e-01 2.2648579872464747e-01 3.8664472517550713e-01  4.8462550309507285e-01 2.2516560932592838e-01 3.8728800474950020e-01  4.8462317455893034e-01 2.2494007603113148e-01 3.8740268763275587e-01  4.8463513201860509e-01 2.2580696065495973e-01 3.8698013369033113e-01  4.8466404195989388e-01 2.2758827076570604e-01 3.8613512564742369e-01  4.8473308177246416e-01 2.3088334435796692e-01 3.8465065761764744e-01  4.8486554826888639e-01 2.3548814046813565e-01 3.8276385944834607e-01  4.8510034463765106e-01 2.4168065263110503e-01 3.8052130560754960e-01  4.8548899723443673e-01 2.4968680300572973e-01 3.7805733137653252e-01  4.8613260548837978e-01 2.6021165755432085e-01 3.7548991036151280e-01  4.8716167677843231e-01 2.7391295393104614e-01 3.7309198878972966e-01  4.8873438438596156e-01 2.9127696039686118e-01 3.7133761612975114e-01  4.9105734973182474e-01 3.1298134934654503e-01 3.7074727010751896e-01  4.9438546802222805e-01 3.3949472249847823e-01 3.7206002733524779e-01  4.9895521013074101e-01 3.7058789936357150e-01 3.7609258888695307e-01  5.0496647671600170e-01 4.0503710309828900e-01 3.8371942140982318e-01  5.1226021012543765e-01 4.3969122127628080e-01 3.9509689881276699e-01  5.2040404290294429e-01 4.7065220721308643e-01 4.0980269415627341e-01  5.2883461879341886e-01 4.9503680230718988e-01 4.2700193375475415e-01  5.3694014092444664e-01 5.1163569050484892e-01 4.4541643306663664e-01  5.4419517044700749e-01 5.2092109887438032e-01 4.6367927575358908e-01  5.5034156417720148e-01 5.2457657677874692e-01 4.8074748269815293e-01  5.5530897619668762e-01 5.2448319760348450e-01 4.9590688276551725e-01  5.5920865785295104e-01 5.2225697671316484e-01 5.0890862534172721e-01  5.6219309373456905e-01 5.1908024469557112e-01 5.1969178243143688e-01  5.6443038587839889e-01 5.1572165245808987e-01 5.2836688468165860e-01  5.6605347053376265e-01 5.1271140279286864e-01 5.3501867856532803e-01  5.6719158524806479e-01 5.1029185095175800e-01 5.3988091110778269e-01  5.6792066472376768e-01 5.0862316450834766e-01 5.4306896837877539e-01  5.6835085806868968e-01 5.0762856099999931e-01 5.4495148194245269e-01  5.6849073251721138e-01 5.0742223460606573e-01 5.4547108689829271e-01  5.6837481443084370e-01 5.0794405846499191e-01 5.4476583477527829e-01  5.6802204720931881e-01 5.0911826999605836e-01 5.4294097282645470e-01  5.6744522688158039e-01 5.1084480754331207e-01 5.4009988692078537e-01  5.6665537625390872e-01 5.1299102152211495e-01 5.3636412615100004e-01  5.6568521605464994e-01 5.1536528142697047e-01 5.3195650318094934e-01  5.6453988915303732e-01 5.1785499699259352e-01 5.2696279452903294e-01  5.6321245958179700e-01 5.2036619415063834e-01 5.2142163653712736e-01  5.6175130676089069e-01 5.2272558011316639e-01 5.1558066727386032e-01  5.6017123028106763e-01 5.2483998895088302e-01 5.0953589860206860e-01  5.5848760698023803e-01 5.2664525917603888e-01 5.0336342741151563e-01  5.5670935889129469e-01 5.2808797308867983e-01 4.9711299615450316e-01  5.5489829222669207e-01 5.2909198892249665e-01 4.9100627874669028e-01  5.5303383036901310e-01 5.2967568257330588e-01 4.8496108445186148e-01  5.5116121075703195e-01 5.2983526446624152e-01 4.7910125001659953e-01  5.4926830301123297e-01 5.2955349047430156e-01 4.7340045742302722e-01  5.4739542241370354e-01 5.2888061815139031e-01 4.6793757993436857e-01  5.4555266729658802e-01 5.2782876700105608e-01 4.6273804745124963e-01  5.4373869653785534e-01 5.2642916957587049e-01 4.5777309731172827e-01  5.4196002992165659e-01 5.2471109403975236e-01 4.5304565648541234e-01  5.4022825761733506e-01 5.2271710036327379e-01 4.4856543715553254e-01  5.3690932094956023e-01 5.1801261928998010e-01 4.4030479828171071e-01  5.3533112355296897e-01 5.1537051074968765e-01 4.3651760783128990e-01  5.3380060913534333e-01 5.1255849155816069e-01 4.3292987884374201e-01  5.3232629694122457e-01 5.0961897745825158e-01 4.2954693737683325e-01  5.3090574334668406e-01 5.0657072082469423e-01 4.2635583138806699e-01  5.2953762542795124e-01 5.0343419659766053e-01 4.2334400099998221e-01  5.2822132277865286e-01 5.0022898000068006e-01 4.2050274029373080e-01  5.2695610551232031e-01 4.9697446008709356e-01 4.1782242915071760e-01  5.2574000331138138e-01 4.9368432481392077e-01 4.1529315864523025e-01  5.2457176914173143e-01 4.9037302643305342e-01 4.1290609118724564e-01  5.2345033178016087e-01 4.8705350546745724e-01 4.1065498272854234e-01  5.2237588584031369e-01 4.8374469126340225e-01 4.0853278108672619e-01  5.2134026471379458e-01 4.8043333900887758e-01 4.0652132475120456e-01  5.2034464835853544e-01 4.7713726283454583e-01 4.0461848212183377e-01  5.1939393940383394e-01 4.7388522681095274e-01 4.0282968128919033e-01  5.1847234376243678e-01 4.7063314283327495e-01 4.0112316307397566e-01  5.1758798180086751e-01 4.6742078164126782e-01 3.9951049829596097e-01  5.1674705255322340e-01 4.6428149722205797e-01 3.9799886132802353e-01  5.1593599887824937e-01 4.6117358168945821e-01 3.9656414050342836e-01  5.1515627887176385e-01 4.5811305390961760e-01 3.9520316931346205e-01  5.1440669466882516e-01 4.5510083601658224e-01 3.9391447081383507e-01  5.1368708144135400e-01 4.5214431571238911e-01 3.9269489057886853e-01  5.1299414607086979e-01 4.4923711744795652e-01 3.9153681424595344e-01  5.1232695823692875e-01 4.4638080337307007e-01 3.9043766595584928e-01  5.1168892097332730e-01 4.4359676616776672e-01 3.8940095478019326e-01  5.1107478077803070e-01 4.4086721369654930e-01 3.8841692669697642e-01  5.1048135236886394e-01 4.3818385519539144e-01 3.8747903182795879e-01  5.0991608348409945e-01 4.3558430756467009e-01 3.8659774455969131e-01  5.0936894466730509e-01 4.3302734628153222e-01 3.8575660245687610e-01  5.0884297762122654e-01 4.3053158676586878e-01 3.8495849715161412e-01  5.0833823439876702e-01 4.2810101565790182e-01 3.8420296466740878e-01  5.0785288923051153e-01 4.2573047894332655e-01 3.8348613699144574e-01  5.0738646086678518e-01 4.2342125079153281e-01 3.8280635071619695e-01  5.0693710001962589e-01 4.2116718811423298e-01 3.8216013541721960e-01  5.0650274181332944e-01 4.1896075821123457e-01 3.8154373966028343e-01  5.0608955639433473e-01 4.1683658338302182e-01 3.8096491224511320e-01  5.0569385054163496e-01 4.1477848340101170e-01 3.8041781922544304e-01  5.0530751111055994e-01 4.1274649390863311e-01 3.7989060462993995e-01  5.0493964684859827e-01 4.1079079711880090e-01 3.7939500036938434e-01  5.0458890114808175e-01 4.0890657705752675e-01 3.7892859107972238e-01  5.0425038668090139e-01 4.0707000637739460e-01 3.7848409326902088e-01  5.0392625894498677e-01 4.0529474923698977e-01 3.7806366481843701e-01  5.0361384788458619e-01 4.0356763231567105e-01 3.7766369749926826e-01  5.0331781831948164e-01 4.0191688459111041e-01 3.7728901454580460e-01  5.0303216720032817e-01 4.0031019121346201e-01 3.7693213836005135e-01  5.0275995833888443e-01 3.9876666893519486e-01 3.7659602551726779e-01  5.0249869753827237e-01 3.9727363261278376e-01 3.7627714689574898e-01  5.0224735631276318e-01 3.9582652164671273e-01 3.7597392808760377e-01  5.0201078592903758e-01 3.9445438329683763e-01 3.7569205621608376e-01  5.0178612979195658e-01 3.9314239910414367e-01 3.7542724024645724e-01  5.0156891480143417e-01 3.9186558314624642e-01 3.7517402526093580e-01  5.0136448239131592e-01 3.9065627146207549e-01 3.7493827049683209e-01  5.0117173361818501e-01 3.8950917578937144e-01 3.7471841436267916e-01  5.0098820821828016e-01 3.8841079041027671e-01 3.7451110245922165e-01  5.0081391717428603e-01 3.8736209192665383e-01 3.7431621883758071e-01  5.0065121028056181e-01 3.8637801978030922e-01 3.7413597055938480e-01  5.0380405952102514e-01 4.0462115603742310e-01 3.7790641741455722e-01  5.6422133587575785e-01 5.1847887961152062e-01 5.2562237040776494e-01  5.0019324875683635e-01 3.8356841863232011e-01 3.7364840219197082e-01  5.3945886234580831e-01 5.2172577473702242e-01 4.4661538875334955e-01  5.0061247946360710e-01 3.8614333391250139e-01 3.7409306388360120e-01  5.7232960858576443e-01 4.8730946271517428e-01 5.7081036877409441e-01  5.0316371135678684e-01 4.0102111464236329e-01 3.7711987185416718e-01  5.1069877784072981e-01 4.3911776614121512e-01 3.8786643672690996e-01  4.8641367789374085e-01 2.6423877060434231e-01 3.7468210660860041e-01  5.6228810158764408e-01 5.2144450715805335e-01 5.1806627033290820e-01  5.0721158436134628e-01 4.2254726698417239e-01 3.8255378625696673e-01  5.6586361221173109e-01 5.1262577165200851e-01 5.3459562233230118e-01  5.7159070391048117e-01 4.9548732457533906e-01 5.6261687652109715e-01  5.1022186955397686e-01 4.3699575683510089e-01 3.8707292605149063e-01  5.4472075856894453e-01 5.2702389165159336e-01 4.6060725889679888e-01  4.9956679451913016e-01 3.7968423350396396e-01 3.7298565775234627e-01  5.3413372722537644e-01 5.0582859314870321e-01 4.3941505558601512e-01  4.9008541353806007e-01 3.0418154291159144e-01 3.7086762364344655e-01  4.9930653927508140e-01 3.7805032448568421e-01 3.7271671823596519e-01  5.1477814415539080e-01 4.5660111932502401e-01 3.9455095480395064e-01  5.3149164298662022e-01 5.0771947404094464e-01 4.2776815303319038e-01  5.2089694336487302e-01 4.7898202365421544e-01 4.0566999736353226e-01  4.9934945471721948e-01 3.7832289299818539e-01 3.7275893829341844e-01  4.8483255240197276e-01 2.3459204605086284e-01 3.8308941174160149e-01  5.2161849934339466e-01 4.8124103031523041e-01 4.0713223419854705e-01  5.2642682059747570e-01 4.9556004461400399e-01 4.1671687234340055e-01  4.9961109633077333e-01 3.7996915987311980e-01 3.7302558744546443e-01  5.0216490463816876e-01 3.9534981455466395e-01 3.7587501296146514e-01  5.5405382043618367e-01 5.2940108033010558e-01 4.8824636790314752e-01  5.3690344406838575e-01 5.0718745333046078e-01 4.4862053363307736e-01  5.0564333229533154e-01 4.1447313832508165e-01 3.8038066781487495e-01  5.0119381186525780e-01 3.8962055106704363e-01 3.7475926947118127e-01  4.8463870038267687e-01 2.2630396770862374e-01 3.8671555900327476e-01  5.1648334258475093e-01 4.6320154894254550e-01 3.9759092887618586e-01  5.3168433963115558e-01 5.0826594549400728e-01 4.2809781507576261e-01  4.9996000250374550e-01 3.8214232911184526e-01 3.7338965475734553e-01  5.7445257505319292e-01 4.7875906708926758e-01 5.8253153189751383e-01  5.6840236491080143e-01 5.0787765196895873e-01 5.4489011811849297e-01  5.0130288888842378e-01 3.9029065429913445e-01 3.7486753591436184e-01  5.0517300678501142e-01 4.1203468972059709e-01 3.7970824133351178e-01  5.4637933546154860e-01 5.2834326908533202e-01 4.6505347831059535e-01  4.9873780488494818e-01 3.6797145110379398e-01 3.7665072980753156e-01  5.0780449716486498e-01 4.2544207072885321e-01 3.8345410435312643e-01  4.9941635468635753e-01 3.7874097716074556e-01 3.7282986388162193e-01  5.0429840619594646e-01 4.0729626603865460e-01 3.7857449064412518e-01  4.8487543643725162e-01 2.3588051343417310e-01 3.8258993975827710e-01  5.6270222997345420e-01 5.1218068179275134e-01 5.2660081306022100e-01  5.1332854847867282e-01 4.5058149528997338e-01 3.9214621949877981e-01  5.5495576090952270e-01 5.2875049273824570e-01 4.9144848294748666e-01  5.0292920608158898e-01 3.9972781113044542e-01 3.7680430391166059e-01  5.0066278964012056e-01 3.8643186833585141e-01 3.7416157039647113e-01  5.1202476953222098e-01 4.4506899041272430e-01 3.8994466281394108e-01  5.0970183475217989e-01 4.2771802927309749e-01 3.9125072385492266e-01  5.1715932048575053e-01 4.6583161625626479e-01 3.9873721818198965e-01  5.5943602592824815e-01 5.2566519247661470e-01 5.0682097579168006e-01  5.0195501532248399e-01 3.9410512339165332e-01 3.7564507349786430e-01  5.0863413544