<?xml version="1.0"?>
<VTKFile type="UnstructuredGrid"  version="0.1"  >
<UnstructuredGrid>
<Piece  NumberOfPoints="4940" NumberOfCells="9650">
<Points>
<DataArray  type="Float64"  NumberOfComponents="3"  format="ascii">500 250 0  0 250 0  250 500 0  250 0 0  256.8885856082646 499.9050767557906 0  263.7719401218049 499.6203791065173 0  270.6448364229772 499.1461232471188 0  277.5020553257866 498.4826693209355 0  284.3383895508592 497.6305211460281 0  291.1486476865662 496.5903258312597 0  297.9276581259182 495.3628732847843 0  304.6702729675493 493.9490956196674 0  311.3713719748657 492.3500664368026 0  318.0258664141369 490.5670000199653 0  324.6287029687753 488.6012504015818 0  331.1748675330201 486.4543103455647 0  337.6593890460416 484.1278102064655 0  344.0773432429536 481.6235166997244 0  350.4238564271474 478.9433315480048 0  356.694109139292 476.0892900492477 0  362.88333985546 473.0635595140469 0  368.9868485575419 469.8684376402048 0  375.0000003153078 466.5063507640667 0  380.9182288257928 462.9798520074548 0  386.7370398729688 459.2916193419558 0  392.4520147244077 455.444453565817 0  398.0588135356345 451.4412761437442 0  403.5531785622926 447.285127045646 0  408.9309374414144 442.9791624087773 0  414.1880064015299 438.5266521049243 0  419.3203932989752 433.9309773069245 0  424.324200661095 429.1956279150535 0  429.1956286596235 424.3241998957182 0  433.9309780058756 419.3203925397119 0  438.5266527445345 414.1880056671062 0  442.9791630130591 408.9309367076756 0  447.2851276060475 403.5531778422888 0  451.4412766621026 398.0588128303826 0  455.4444540361634 392.4520140460735 0  459.2916197786263 386.7370392045948 0  462.9798524073514 380.9182281752347 0  466.5063511234856 374.9999996927758 0  469.8684379657123 368.9868479560565 0  473.0635598144817 362.8833392617846 0  476.0892903190255 356.6941085676214 0  478.9433317963513 350.4238558609745 0  481.6235169154735 344.0773427117675 0  484.12781039012 337.6593885555221 0  486.4543105028062 331.1748670749914 0  488.601250531677 324.6287025528375 0  490.5670001317469 318.0258660188321 0  492.3500665291326 311.3713716102628 0  493.949095695951 304.6702726271575 0  495.3628733416623 297.9276578347343 0  496.5903258712341 291.1486474470129 0  497.6305211749058 284.3383893426084 0  498.4826693388848 277.502055163614 0  499.1461232580606 270.6448362909296 0  499.6203791109319 263.7719400417897 0  499.9050767571306 256.8885855596534 0  499.9050767559877 243.1114143988867 0  499.6203791069493 236.2280598860241 0  499.1461232485393 229.3551635941651 0  498.4826693235677 222.4979446979962 0  497.6305211491849 215.6616104719064 0  496.5903258357701 208.8513523404629 0  495.3628732906988 202.0723419043604 0  493.9490956264813 195.3297270628552 0  492.3500664487791 188.6286280724281 0  490.5670000344809 181.9741336371959 0  488.6012504175981 175.3712970824318 0  486.4543103623226 168.8251325157939 0  484.1278102222298 162.3406109960628 0  481.6235167152198 155.9226567951971 0  478.9433315621651 149.5761436051346 0  476.0892900516498 143.3058908657982 0  473.063559513628 137.1166601437124 0  469.8684376406648 131.0131514433083 0  466.5063507675389 124.9999996907064 0  462.9798520124137 119.0817711822745 0  459.2916193464549 113.2629601339176 0  455.4444535642773 107.5479852733717 0  451.4412761528674 101.9411864767781 0  447.2851270583545 96.44682145403524 0  442.9791624165781 91.06906256805769 0  438.5266521117469 85.81199360630404 0  433.9309773156125 80.67960671046254 0  429.1956279150353 75.67579933888632 0  424.3241998888952 70.80437133373906 0  419.3203925223282 66.06902197812161 0  414.1880056411937 61.47334723289828 0  408.9309366751728 57.0208369601728 0  403.5531778009394 52.71487236176898 0  398.058812796452 48.55872331295853 0  392.4520140187753 44.55554594490843 0  386.7370391799677 40.70838020528396 0  380.9182281475119 37.02014757560744 0  374.9999996718656 33.49364886444181 0  368.9868479340393 30.13156202237255 0  362.8833392380029 26.93644017348339 0  356.6941085456942 23.91070967062674 0  350.4238558420009 21.0566681953261 0  344.0773426899492 18.37648307566465 0  337.6593885328982 15.87218960140942 0  331.1748670549786 13.54568949032341 0  324.6287025315056 11.39874946165088 0  318.0258660010876 9.432999863235466 0  311.3713716017894 7.649933468721599 0  304.6702726190621 6.050904302234756 0  297.9276578269805 4.637126656823085 0  291.148647441857 3.409674127905504 0  284.3383893425031 2.369478825079682 0  277.502055159398 1.517330660648639 0  270.6448362875833 0.853876741662134 0  263.7719400401456 0.3796208889774277 0  256.8885855592052 0.09492324285704967 0  243.1114143979462 0.09492324403817065 0  236.2280598850882 0.3796208931023841 0  229.3551635938215 0.8538767514891958 0  222.4979446968584 1.517330676558146 0  215.6616104703111 2.369478851036291 0  208.8513523382973 3.409674164591252 0  202.0723419066374 4.637126708856528 0  195.3297270659513 6.050904372824903 0  188.628628074828 7.649933550613184 0  181.9741336377093 9.432999965373938 0  175.3712970793675 11.39874958336037 0  168.8251325057572 13.54568964112298 0  162.340610986655 15.87218978129263 0  155.9226567874317 18.37648328793418 0  149.576143602509 21.05666843898663 0  143.3058908718157 23.91070994551046 0  137.1166601505524 26.93644048291054 0  131.0131514451933 30.13156235831508 0  124.9999996848412 33.49364923584736 0  119.0817711715717 37.0201479941652 0  113.2629601211624 40.70838066187849 0  107.5479852622251 44.55554644345162 0  101.9411864693332 48.55872385260452 0  96.44682143286516 52.71487295812284 0  91.06906254351222 57.02083760363669 0  85.81199358272519 61.4733479087879 0  80.67960667988106 66.06902271253972 0  75.67579930062769 70.80437212218331 0  70.80437129287643 75.67580015310926 0  66.06902193673014 80.67960752263491 0  61.47334718684866 85.81199441168215 0  57.02083692524275 91.0690633672404 0  52.71487232786438 96.44682224262129 0  48.55872328070024 101.941187247437 0  44.55554591578033 107.5479860232332 0  40.7083801742321 113.2629608675606 0  37.02014754791168 119.0817718975441 0  33.49364883372994 125.000000381329 0  30.13156199866361 131.0131521097709 0  26.9364401549829 137.1166607985551 0  23.91070965524918 143.3058914868915 0  21.05666818346614 149.576144185037 0  18.37648306853811 155.9226573275967 0  15.8721895918909 162.3406114925245 0  13.54568948170046 168.8251329701392 0  11.39874945301878 175.3712974960928 0  9.432999857087736 181.9741340206533 0  7.649933466342702 188.6286284076045 0  6.050904301250966 195.3297273853278 0  4.637126656808988 202.0723421730917 0  3.409674127767772 208.8513525589684 0  2.369478824521138 215.6616106615248 0  1.517330660909465 222.4979448382452 0  0.8538767414496533 229.355163714981 0  0.3796208887135322 236.2280599646376 0  0.09492324266324204 243.1114144478261 0  0.0949232442452228 256.8885856095658 0  0.3796208935834784 263.7719401236316 0  0.8538767530323526 270.6448364248016 0  1.517330679476544 277.5020553295092 0  2.369478854618649 284.3383895555228 0  3.409674170191892 291.1486476952655 0  4.6371267162381 297.9276581311522 0  6.050904381420935 304.6702729724059 0  7.649933562385399 311.3713719716595 0  9.43299997979841 318.0258664133013 0  11.3987495994252 324.6287029719946 0  13.54568965885832 331.174867545904 0  15.87218979367188 337.6593890464085 0  18.37648329843151 344.0773432384132 0  21.05666844777872 350.423856417535 0  23.91070995156048 356.6941091410045 0  26.93644048988043 362.8833398632205 0  30.13156235982007 368.9868485575877 0  33.49364924138357 375.0000003247478 0  37.0201480006036 380.9182288389023 0  40.70838066758398 386.7370398875706 0  44.55554644477201 392.4520147396792 0  48.55872386086904 398.0588135419111 0  52.71487295981296 403.5531785693063 0  57.02083760525949 408.9309374584583 0  61.47334790862246 414.1880064170849 0  66.06902271205095 419.320393319588 0  70.80437211216579 424.3242006890749 0  75.67580013809859 429.195628692521 0  80.6796075127923 433.930978054209 0  85.81199439754931 438.5266528008431 0  91.06906334717917 442.9791630582355 0  96.44682221438322 447.2851276501571 0  101.9411872243843 451.441276702356 0  107.5479859945825 455.4444540643537 0  113.2629608446994 459.2916198108319 0  119.0817718768376 462.9798524393601 0  125.0000003647644 466.5063511567065 0  131.0131521012763 469.8684379967393 0  137.1166607840049 473.0635598376539 0  143.3058914748804 476.0892903390826 0  149.5761441732679 478.9433318113714 0  155.9226573130112 481.6235169255377 0  162.3406114779862 484.1278104026658 0  168.8251329570439 486.4543105138039 0  175.3712974805475 488.601250542119 0  181.9741340135204 490.5670001408953 0  188.6286284005059 492.3500665318597 0  195.3297273788229 493.9490956972913 0  202.0723421640089 495.3628733414168 0  208.8513525529672 496.5903258712308 0  215.6616106544547 497.6305211744985 0  222.4979448327038 498.4826693384772 0  229.3551637102845 499.1461232581612 0  236.2280599621369 499.6203791111485 0  243.1114144470173 499.9050767573145 0  155.2373389820306 474.8197567317462 0  25.36256300907667 153.9152755065208 0  432.3709625126712 412.6214396304305 0  6.013151705810699 246.637913163471 0  246.6379131630491 493.986848294322 0  338.6995838441862 22.68244767887072 0  477.3175523131281 338.6995838660569 0  493.9868482700757 246.6379131399102 0  246.6201155078769 6.218451882810491 0  417.6179310263282 72.7156044707053 0  102.2232990934413 445.0100869616822 0  63.66330858966404 92.20354579482142 0  391.3105220491464 50.73522820883105 0  72.79295043967942 418.0702734974704 0  448.290574428537 108.25674339002 0  402.4604651193511 440.7462829841712 0  97.55317348421397 59.11376320116034 0  136.7376477664901 33.58246472647134 0  363.3288394375288 465.6947312928271 0  44.0678766556007 381.0860953771871 0  469.6905266180034 142.3890690100806 0  22.68244791668644 338.6995843487432 0  338.699584349159 477.317552078365 0  173.389488083762 18.6681884918202 0  483.4809734778481 179.7121987795732 0  13.50237455842738 306.4709525540879 0  305.9825168523021 487.24416992
[...]
<PointData  Vectors="f_12"> 
<DataArray  type="Float64"  Name="f_12"  NumberOfComponents="3" format="ascii">5.0329896406478836e-01 8.5249328853767001e-02 2.2434150632950356e-01  5.1332119548093935e-01 8.0044015837676452e-02 2.6960567522144857e-01  4.9631315448459157e-01 9.1895533816489489e-02 1.9203329719301845e-01  5.3630000878954465e-01 7.7533712251980830e-02 3.7133511333488606e-01  4.9623555095941896e-01 9.1991107858773263e-02 1.9166767530901785e-01  4.9616514167564391e-01 9.2078360983677013e-02 1.9133576805214228e-01  4.9609807877121864e-01 9.2161926850053186e-02 1.9101947859614699e-01  4.9603734445066583e-01 9.2237989907672957e-02 1.9073290783541341e-01  4.9598163334833079e-01 9.2308106288688449e-02 1.9046991752279291e-01  4.9593115445017788e-01 9.2371902765671171e-02 1.9023154017483110e-01  4.9588588803842021e-01 9.2429335579080660e-02 1.9001769923216921e-01  4.9584556880180630e-01 9.2480671246091661e-02 1.8982716715197331e-01  4.9581055766650989e-01 9.2525382958478022e-02 1.8966167491616182e-01  4.9578117043137720e-01 9.2563016080929317e-02 1.8952272740000928e-01  4.9575974410299156e-01 9.2590522283517301e-02 1.8942139679874867e-01  4.9573881695178568e-01 9.2617408977978100e-02 1.8932242188842019e-01  4.9573024747940159e-01 9.2628452874685047e-02 1.8928187926311352e-01  4.9572333906256466e-01 9.2637344178756437e-02 1.8924920090484734e-01  4.9572325283791357e-01 9.2637456643209631e-02 1.8924879206521286e-01  4.9572876833032875e-01 9.2630353078786892e-02 1.8927488319830024e-01  4.9573961176135850e-01 9.2616384693074899e-02 1.8932618556286010e-01  4.9575905480557148e-01 9.2591404600869842e-02 1.8941814041244023e-01  4.9578514533102586e-01 9.2557939463352709e-02 1.8954151361470103e-01  4.9581509660667394e-01 9.2519588325000901e-02 1.8968312847102253e-01  4.9585205608844468e-01 9.2472398257246527e-02 1.8985782877047222e-01  4.9589747011764618e-01 9.2414630136418360e-02 1.9007241600303437e-01  4.9595175272188391e-01 9.2345857916098895e-02 1.9032881334019477e-01  4.9601019806100916e-01 9.2272133470262349e-02 1.9060476542144320e-01  4.9607582823796625e-01 9.2189768997772509e-02 1.9091449669525312e-01  4.9615182855715440e-01 9.2094942883811537e-02 1.9127297897219109e-01  4.9623332827463945e-01 9.1993898850635011e-02 1.9165717932631940e-01  4.9632352012579395e-01 9.1882860674679753e-02 1.9208209589736583e-01  4.9642190960397148e-01 9.1762642136323652e-02 1.9254531738958200e-01  4.9652710450346760e-01 9.1635141877246293e-02 1.9304023962417599e-01  4.9664352623125729e-01 9.1495288226107516e-02 1.9358756872874039e-01  4.9676777078574008e-01 9.1347471289541210e-02 1.9417118308939363e-01  4.9689855871678068e-01 9.1193414852808269e-02 1.9478503448179599e-01  4.9704061239112074e-01 9.1027896866116148e-02 1.9545116823321287e-01  4.9719417766179064e-01 9.0851064041969215e-02 1.9617058737708357e-01  4.9735514486118937e-01 9.0667954992033867e-02 1.9692395897386064e-01  4.9752360398520734e-01 9.0478773506278198e-02 1.9771160758228037e-01  4.9770392882222964e-01 9.0279016555873864e-02 1.9855385190152941e-01  4.9789591343607847e-01 9.0069335178375731e-02 1.9944961991715893e-01  4.9809679903971965e-01 8.9853275577449182e-02 2.0038584924146779e-01  4.9830904220471012e-01 8.9628580326179222e-02 2.0137390523104848e-01  4.9853191676857039e-01 8.9396500480535920e-02 2.0241025718234640e-01  4.9876521742471353e-01 8.9157706650886806e-02 2.0349384001998666e-01  4.9900874939576184e-01 8.8912921166953721e-02 2.0462355038513300e-01  4.9926678752740972e-01 8.8658441723511824e-02 2.0581912326519275e-01  4.9953463501694850e-01 8.8399327352616158e-02 2.0705865248111735e-01  4.9981435528453871e-01 8.8134314011814568e-02 2.0835147012544458e-01  5.0010558337379341e-01 8.7864015708237042e-02 2.0969589845082426e-01  5.0040877623745683e-01 8.7588826641950251e-02 2.1109373830225367e-01  5.0072568938878803e-01 8.7307595280175732e-02 2.1255306024819423e-01  5.0105437082566051e-01 8.7022695055796850e-02 2.1406470605340067e-01  5.0139466201734462e-01 8.6734894106855670e-02 2.1562774908380919e-01  5.0174882406137977e-01 8.6442695353854015e-02 2.1725259682517306e-01  5.0211556959004910e-01 8.6147997189952211e-02 2.1893299202894623e-01  5.0249411944746458e-01 8.5851569360627808e-02 2.2066565240740682e-01  5.0288180858492504e-01 8.5555517705470013e-02 2.2243804514747761e-01  5.0371411915314979e-01 8.4949742107761336e-02 2.2623569431874360e-01  5.0414568779280211e-01 8.4649101750055494e-02 2.2820146674774722e-01  5.0458982649363915e-01 8.4349253404704505e-02 2.3022217658289165e-01  5.0504980603210292e-01 8.4048181578275816e-02 2.3231302844311064e-01  5.0552214675422724e-01 8.3749564517163408e-02 2.3445724369649806e-01  5.0600743085760225e-01 8.3452416704171056e-02 2.3665841975893750e-01  5.0650653716059468e-01 8.3157864083839364e-02 2.3891952191494478e-01  5.0701885474808805e-01 8.2865968852699104e-02 2.4123836293968048e-01  5.0754379893929380e-01 8.2577862277221192e-02 2.4361192685900004e-01  5.0808109108754729e-01 8.2294080838909753e-02 2.4603892489064691e-01  5.0863285143845316e-01 8.2013752153173677e-02 2.4852913637904683e-01  5.0919465135086595e-01 8.1739886468247730e-02 2.5106209488891862e-01  5.0977042536856665e-01 8.1470440533087093e-02 2.5365589816081408e-01  5.1035820002475885e-01 8.1207052002431376e-02 2.5630141792636463e-01  5.1095773809308409e-01 8.0949999066785794e-02 2.5899763421965571e-01  5.1156817950568345e-01 8.0700060107489910e-02 2.6174051496678113e-01  5.1218942334041273e-01 8.0457348478575913e-02 2.6452974386418793e-01  5.1282134379529720e-01 8.0222249054343539e-02 2.6736462654912441e-01  5.1346388318877345e-01 7.9994943080007416e-02 2.7024490790373340e-01  5.1411577132432840e-01 7.9776042431616817e-02 2.7316485485512693e-01  5.1477588634604610e-01 7.9565864189208371e-02 2.7611955190201443e-01  5.1544480903650103e-01 7.9364790779608979e-02 2.7911130040614102e-01  5.1612248140440797e-01 7.9172494411476849e-02 2.8214000261744765e-01  5.1680557154553697e-01 7.8989987301819206e-02 2.8519075228383040e-01  5.1749571574293485e-01 7.8816898389560075e-02 2.8827077825611042e-01  5.1819136949267119e-01 7.8653565470585204e-02 2.9137316771359445e-01  5.1889164511896591e-01 7.8500052292012901e-02 2.9449401150772253e-01  5.1959549186831733e-01 7.8356580842812551e-02 2.9762846968230366e-01  5.2030175352387376e-01 7.8223022375362716e-02 3.0077161318735463e-01  5.2101029879208494e-01 7.8099468030036909e-02 3.0392255442141403e-01  5.2171921733590132e-01 7.7985843838815072e-02 3.0707301648305479e-01  5.2242768268123119e-01 7.7882067659052340e-02 3.1021925461158162e-01  5.2313532477307034e-01 7.7788056146835080e-02 3.1335949844939132e-01  5.2384040240625429e-01 7.7703527834660668e-02 3.1648620639567948e-01  5.2453894146357916e-01 7.7628632382240340e-02 3.1958173447793670e-01  5.2523434296801974e-01 7.7562737863858949e-02 3.2266108069968485e-01  5.2592475637547020e-01 7.7505536226956634e-02 3.2571610882617041e-01  5.2660360828713515e-01 7.7457143803206743e-02 3.2871785523372549e-01  5.2727587422609190e-01 7.7416774312586784e-02 3.3168834895143645e-01  5.2794161648763849e-01 7.7383999749569957e-02 3.3462774381742283e-01  5.2858981200606214e-01 7.7358788087368263e-02 3.3748779315131849e-01  5.2922549853749279e-01 7.7340702472196890e-02 3.4029028534749239e-01  5.2984623794097307e-01 7.7328739729495055e-02 3.4302526773700692e-01  5.3045300440571863e-01 7.7322816411114201e-02 3.4569655938229887e-01  5.3104173449216563e-01 7.7322239033540532e-02 3.4828669340109691e-01  5.3161215557226871e-01 7.7326548903806733e-02 3.5079448131462210e-01  5.3216227339257105e-01 7.7335129459705179e-02 3.5321136845352286e-01  5.3269031361451613e-01 7.7347401287364143e-02 3.5552971352998286e-01  5.3319715073931606e-01 7.7362900633696136e-02 3.5775346159167626e-01  5.3368161166965711e-01 7.7381013574690002e-02 3.5987773195917228e-01  5.3414108425058116e-01 7.7401135892795098e-02 3.6189119290144789e-01  5.3457240455865929e-01 7.7422676049691441e-02 3.6378014475224985e-01  5.3497508559381834e-01 7.7445030775561363e-02 3.6554269957187213e-01  5.3535193426069483e-01 7.7467922930894245e-02 3.6719128786396993e-01  5.3569814327384380e-01 7.7490590241966209e-02 3.6870512557451657e-01  5.3601553526454082e-01 7.7512769451238833e-02 3.7009227646097337e-01  5.3654443462497237e-01 7.7552729065972187e-02 3.7240238963871181e-01  5.3679155642394583e-01 7.7572305848160605e-02 3.7348142026280390e-01  5.3696784474805548e-01 7.7587079604152273e-02 3.7425070816057776e-01  5.3712422429392925e-01 7.7600413853059769e-02 3.7493300874818231e-01  5.3724933900383320e-01 7.7611283763857355e-02 3.7547880278882234e-01  5.3733775356725033e-01 7.7619103643099790e-02 3.7586442247934204e-01  5.3739144100992342e-01 7.7623890838406817e-02 3.7609856743614067e-01  5.3741316780658610e-01 7.7625839593051249e-02 3.7619331544924606e-01  5.3740018373812692e-01 7.7624675840788096e-02 3.7613669274938943e-01  5.3736611552237079e-01 7.7621615537217706e-02 3.7598812229317990e-01  5.3727905092600980e-01 7.7613899891275373e-02 3.7560839444264510e-01  5.3716469154972468e-01 7.7603906059823799e-02 3.7510955545779401e-01  5.3701812357000678e-01 7.7591350890439545e-02 3.7447007630369539e-01  5.3684511051742234e-01 7.7576850575614961e-02 3.7371507704607032e-01  5.3663764952742576e-01 7.7559983698953353e-02 3.7280949619725934e-01  5.3639419987890258e-01 7.7540903502562472e-02 3.7174647284769369e-01  5.3612371235659284e-01 7.7520608527905155e-02 3.7056494816150187e-01  5.3582486687968833e-01 7.7499273192965346e-02 3.6925904864540066e-01  5.3549853104793332e-01 7.7477311039048244e-02 3.6783239858766281e-01  5.3514473202592727e-01 7.7455079125030191e-02 3.6628496628001578e-01  5.3476207385403240e-01 7.7432940497426231e-02 3.6461044494153771e-01  5.3435339955689010e-01 7.7411434445960658e-02 3.6282113484033013e-01  5.3392247133218074e-01 7.7391186781601159e-02 3.6093335353993250e-01  5.3346942057475288e-01 7.7372642404384517e-02 3.5894749045768998e-01  5.3299413479761115e-01 7.7356219000441942e-02 3.5686292008115345e-01  5.3249803958722008e-01 7.7342441730910205e-02 3.5468572059887121e-01  5.3198219572680905e-01 7.7331785150414847e-02 3.5242042190076639e-01  5.3144826012132174e-01 7.7324764895805809e-02 3.5007413680129940e-01  5.3089708559771320e-01 7.7321842595716964e-02 3.4765050000079306e-01  5.3033039636218982e-01 7.7323486869083233e-02 3.4515696563634707e-01  5.2974937673208544e-01 7.7330132860400053e-02 3.4259865109051069e-01  5.2915642312694922e-01 7.7342217606748850e-02 3.3998595514188185e-01  5.2855243444472633e-01 7.7360029659287732e-02 3.3732289530003934e-01  5.2793680464652160e-01 7.7384105255547481e-02 3.3460656974941627e-01  5.2731109116073560e-01 7.7414714017919883e-02 3.3184391218592080e-01  5.2667727934285336e-01 7.7452221265912571e-02 3.2904353822819493e-01  5.2603715112882476e-01 7.7496823710091908e-02 3.2621333331534430e-01  5.2539204304579501e-01 7.7548781579310652e-02 3.2335913087451112e-01  5.2474264031085205e-01 7.7608268071801795e-02 3.2048404682187098e-01  5.2409062568869713e-01 7.7675484706521858e-02 3.1759539201044745e-01  5.2343257241713370e-01 7.7751115668013113e-02 3.1467804129044535e-01  5.2277520274208988e-01 7.7834476641511774e-02 3.1176182214495851e-01  5.2211923339542476e-01 7.7925903386352802e-02 3.0884976444599288e-01  5.2146198588568171e-01 7.8025669428240116e-02 3.0593026761792952e-01  5.2080602631033779e-01 7.8133800813844953e-02 3.0301447796217973e-01  5.2015191225831858e-01 7.8250247246435589e-02 3.0010504026787826e-01  5.1950334314565816e-01 7.8374390739191349e-02 2.9721839870559041e-01  5.1885642593031178e-01 7.8507200296090776e-02 2.9433726054010095e-01  5.1821449746290948e-01 7.8648136930501988e-02 2.9147630265783581e-01  5.1757878088181664e-01 7.8796341122973165e-02 2.8864165286518328e-01  5.1694886694999143e-01 7.8952926536370885e-02 2.8583049229166296e-01  5.1632403559398055e-01 7.9117082120136739e-02 2.8304061712608702e-01  5.1570712007244357e-01 7.9288666402923397e-02 2.8028403670550844e-01  5.1509803987755709e-01 7.9467314432201258e-02 2.7756078555099323e-01  5.1449692011404491e-01 7.9653022209326976e-02 2.7487128192480637e-01  5.1390501953324574e-01 7.9845129271089471e-02 2.7222132654394549e-01  5.1274629299903807e-01 8.0249182951780129e-02 2.6702822238598600e-01  5.1218208206673133e-01 8.0459706362075320e-02 2.6449704004902758e-01  5.1162694141394982e-01 8.0676187056743426e-02 2.6200463298143506e-01  5.1108227003162532e-01 8.0897649511728176e-02 2.5955757498728765e-01  5.1054806449628864e-01 8.1123966298767405e-02 2.5715571835067613e-01  5.1002418145805817e-01 8.1354863881544795e-02 2.5479854252749895e-01  5.0951111860004228e-01 8.1589898556243975e-02 2.5248826168205757e-01  5.0900889934401694e-01 8.1828697292519126e-02 2.5022508982110697e-01  5.0851763659308880e-01 8.2070954088738504e-02 2.4800950657037085e-01  5.0803744303814313e-01 8.2316207962079946e-02 2.4584215338281734e-01  5.0756867645941661e-01 8.2564090894351974e-02 2.4372452514447315e-01  5.0711153204247972e-01 8.2813866448545853e-02 2.4165780767262443e-01  5.0666516020417773e-01 8.3065878386022377e-02 2.3963799123192864e-01  5.0622930261886767e-01 8.3319810995766422e-02 2.3766403712071957e-01  5.0580638190201954e-01 8.3573798691876727e-02 2.3574702906681730e-01  5.0539208795870572e-01 8.3830240501700640e-02 2.3386736409723582e-01  5.0498871944104351e-01 8.4087244248303758e-02 2.3203558752689663e-01  5.0459902084687402e-01 8.4342514092613147e-02 2.3026439557128853e-01  5.0421938859204807e-01 8.4598338550400706e-02 2.2853708084638777e-01  5.0385033945914670e-01 8.4853452286309708e-02 2.2685656989000022e-01  5.0349177750873153e-01 8.5107988019658284e-02 2.2522209623802039e-01  5.0314405884930036e-01 8.5361078562737502e-02 2.2363553528587971e-01  5.0280625343133944e-01 8.5612998169498203e-02 2.2209272328014060e-01  5.0247838059049399e-01 8.5863459835778255e-02 2.2059373659427506e-01  5.0216172104289292e-01 8.6110960788255725e-02 2.1914460018452894e-01  5.0185495613925024e-01 8.6356198749895419e-02 2.1773931545100830e-01  5.0155667079798927e-01 8.6599874239145086e-02 2.1637148094617428e-01  5.0127016080420150e-01 8.6838927464073332e-02 2.1505634034368817e-01  5.0099164369700266e-01 8.7076178226444229e-02 2.1377653397074289e-01  5.0072251616701768e-01 8.7309988016692042e-02 2.1253865901570310e-01  5.0046285360182396e-01 8.7539990240230778e-02 2.1134307581755057e-01  5.0021207529436595e-01 8.7766309653857108e-02 2.1018723524035268e-01  4.9997009357745309e-01 8.7988685928803961e-02 2.0907080334596745e-01  4.9973618407988030e-01 8.8207459791996443e-02 2.0799052134601520e-01  4.9950950060055527e-01 8.8423132116668593e-02 2.0694254879371662e-01  4.9929289460923304e-01 8.8632620455811509e-02 2.0594017621918292e-01  4.9908484580066725e-01 8.8837066139560050e-02 2.0497644404352233e-01  4.9888158729508064e-01 8.9039922477942582e-02 2.0403396778698449e-01  4.9868739363505343e-01 8.9236634209082163e-02 2.0313265508303158e-01  4.9850170782589204e-01 8.9427474859955530e-02 2.0226998947763195e-01  4.9832226585373507e-01 8.9614471829124714e-02 2.0143554281840453e-01  4.9815013085500687e-01 8.9796245480940048e-02 2.0063435207640332e-01  4.9798400621701311e-01 8.9974004585999037e-02 1.9986038735824224e-01  4.9782626444845912e-01 9.0144848120452828e-02 1.9912486515037950e-01  4.9767387911406097e-01 9.0311934832804572e-02 1.9841364544503703e-01  4.9752841931735897e-01 9.0473240293304474e-02 1.9773418946164958e-01  4.9738869323855883e-01 9.0629914505120729e-02 1.9708097189466597e-01  4.9725417267260102e-01 9.0782373014538661e-02 1.9645156443877954e-01  4.9712735197136043e-01 9.0927629347772237e-02 1.9585766500569951e-01  4.9700676803116162e-01 9.1067059244164625e-02 1.9529256889068841e-01  4.9689011778099490e-01 9.1203206185846056e-02 1.9474548645787312e-01  4.9678025789405267e-01 9.1332587965676476e-02 1.9422987121947421e-01  4.9667664673682460e-01 9.1455666992512480e-02 1.9374322394553395e-01  4.9657800356299686e-01 9.1573773230941860e-02 1.9327961763805462e-01  4.9648440272085087e-01 9.1686711708195354e-02 1.9283940576492042e-01  4.9639711524208124e-01 9.1792795412762321e-02 1.9242864217251582e-01  4.9808377015139249e-01 8.9867035525165492e-02 2.0032523976961783e-01  5.2254143028940880e-01 7.7866190656632445e-02 3.1072420544279888e-01  4.9661306972584962e-01 9.1531760555930264e-02 1.9344440822117023e-01  5.1361471512456380e-01 7.9942947314659493e-02 2.7092086151265715e-01  4.9637702580420356e-01 9.1817347789542467e-02 1.9233404806206580e-01  5.3011191684501346e-01 7.7325574560886345e-02 3.4419508053052650e-01  4.9890941725054000e-01 8.9012312642272370e-02 2.0416287580015527e-01  5.0351921370039665e-01 8.5088228005583549e-02 2.2534709996834992e-01  5.3637170161925640e-01 7.7539164697652513e-02 3.7164822499866296e-01  5.2065368530976963e-01 7.8160507940349802e-02 3.0233691074597435e-01  4.9987608438645825e-01 8.8076223485372918e-02 2.0863673806347546e-01  5.2941872731728956e-01 7.7336278994670160e-02 3.4114192500843821e-01  5.2424934901021636e-01 7.7658700346621021e-02 3.1829864706521827e-01  5.0141959152529259e-01 8.6713682392908803e-02 2.1574239334713005e-01  5.1579349348365022e-01 7.9264520256659796e-02 2.8066985590875115e-01  4.9606141632240780e-01 9.2207860645655851e-02 1.9084647062659010e-01  5.3321321017020140e-01 7.7363443853248393e-02 3.5782390457830693e-01  5.3592629836950201e-01 7.7506420895631034e-02 3.6970233072218084e-01  4.9577364000563562e-01 9.2572699488879681e-02 1.8948709916307552e-01  5.0366123810927133e-01 8.4987020028742394e-02 2.2599471083473541e-01  5.1189920627425267e-01 8.0569395132540148e-02 2.6322697603048228e-01  5.0645931499887042e-01 8.3184696877563760e-02 2.3870593162218778e-01  4.9574776289798228e-01 9.2605957653046161e-02 1.8936470963427185e-01  5.3715102940697323e-01 7.7602732164961552e-02 3.7504995140562164e-01  5.0842715109854064e-01 8.2117034257224317e-02 2.4760096977473928e-01  5.0877407691387511e-01 8.1943523236158569e-02 2.4916621059522304e-01  4.9585515837926025e-01 9.2468499615347574e-02 1.8987246139341879e-01  4.9720955818939649e-01 9.0833318589516029e-02 1.9624267487647509e-01  5.1852818782123034e-01 7.8578283005953833e-02 2.9287456087732577e-01  5.3339216420936852e-01 7.7369885499317725e-02 3.5860866999825303e-01  5.0058748118663909e-01 8.7429456470928535e-02 2.1191684562109198e-01  4.9742936475102972e-01 9.0584371510470371e-02 1.9727104269483134e-01  5.3732216564932511e-01 7.7617748606263498e-02 3.7579642914376254e-01  5.0630435930448991e-01 8.3276036352622318e-02 2.3800382878596507e-01  5.1082193483246929e-01 8.1006889932616399e-02 2.5838724106589644e-01  4.9603119771232812e-01 9.2245767879448270e-02 1.9070386767795491e-01  5.2689556451235509e-01 7.7438960557815739e-02 3.3000801398179352e-01  5.2569176722997191e-01 7.7523839455848426e-02 3.2468541820370578e-01  4.9674729737774193e-01 9.1371674167362540e-02 1.9407507198018301e-01  4.9880817861060195e-01 8.9113891104860343e-02 2.0369336107303046e-01  5.1594902127621900e-01 7.9220315716313744e-02 2.8136508775243363e-01  5.3508241342560803e-01 7.7451412789194193e-02 3.6601228464065344e-01  5.0191052554382187e-01 8.6311960038522872e-02 2.1799369039914795e-01  4.9590630318362394e-01 9.2403478727215119e-02 1.9011411312972126e-01  4.9969745614501360e-01 8.8244435503265051e-02 2.0781134939721935e-01  5.3701333026554188e-01 7.7590988777491640e-02 3.7444913831601467e-01  5.3183902168142971e-01 7.7329605157292383e-02 3.5179137236432978e-01  5.0484229888656895e-01 8.4182665836205720e-02 2.3137005706699837e-01  5.1856597186219222e-01 7.8570244545086307e-02 2.9304284779831491e-01  4.9761792998408860e-01 9.0373835355823856e-02 1.9815234327646902e-01  4.9699890049924567e-01 9.1076298895857596e-02 1.9525561840312908e-01  5.0232015444998346e-01 8.5986430610953540e-02 2.1986980980325177e-01  5.3450955450645354e-01 7.7419455489658145e-02 3.6350491672837415e-01  5.0478056770327462e-01 8.4222712091017116e-02 2.3108968496725435e-01  5.2046778357753820e-01 7.8193141470037739e-02 3.0151017518612139e-01  4.9801827701977336e-01 8.9937375075630363e-02 2.0002000115879523e-01  5.0061042786