<?xml version="1.0"?>
<VTKFile type="UnstructuredGrid"  version="0.1"  >
<UnstructuredGrid>
<Piece  NumberOfPoints="7288" NumberOfCells="14083">
<Points>
<DataArray  type="Float64"  NumberOfComponents="3"  format="ascii">239.8 188 0  250.2 180 0  258.2 172.4 0  257 169.4 0  259.9 157.4 0  258.7 150.3 0  261 143.5 0  251.7 144.4 0  250 138.7 0  247 138.1 0  245.2 130.8 0  247.3 126.4 0  242.7 118.6 0  231.2 107.7 0  226 102.4 0  226.5 93.90000000000001 0  224.5 91.19999999999999 0  224.5 84.09999999999999 0  234.5 73.80000000000001 0  228.4 68.90000000000001 0  230 70 0  233.4 68 0  222.7 61.5 0  220.6 45.5 0  223.4 49.40000000000001 0  224 47 0  221.8 43.09999999999999 0  221 38.40000000000001 0  219.5 38.5 0  219.4 41.69999999999999 0  217.1 36.90000000000001 0  209.7 36 0  209.5 31.69999999999999 0  205.1 29.90000000000001 0  201.5 30.40000000000001 0  199.2 38.69999999999999 0  201.8 41.40000000000001 0  194.8 53.80000000000001 0  196.1 57.69999999999999 0  193 59 0  191.4 66.09999999999999 0  193.5 66.5 0  194.1 64.40000000000001 0  195.6 64.69999999999999 0  195.4 72.40000000000001 0  199.5 77.30000000000001 0  197.7 86.90000000000001 0  200.6 87.5 0  201.5 91 0  198 94.80000000000001 0  198.6 100 0  197.3 105.4 0  198 109.5 0  197 112.7 0  198.3 116.1 0  201.3 122 0  207.2 121 0  208.1 126.7 0  205.6 127.9 0  209.1 134.9 0  210.9 144.4 0  210.1 147.9 0  213 148.4 0  215.4 149.3 0  215.1 152.8 0  219.9 159.7 0  220.3 163.2 0  218.7 164.9 0  219.9 166.7 0  221.9 169.7 0  220 170.3 0  224.9 174.7 0  229.8 177.4 0  229.7 181 0  228 172.9 0  239 178 0  240.4 180 0  239 181.5 0  241.2 185.9 0  242.95 187.99 0  240.5875 187.9975 0  241.375 187.995 0  242.1625 187.9925 0  243.6090909090879 187.2636363636397 0  244.2681818181765 186.5372727272785 0  244.9272727272692 185.810909090913 0  245.5863636363531 185.0845454545571 0  246.245454545445 184.3581818181923 0  246.9045454545351 183.6318181818295 0  247.5636363636303 182.9054545454612 0  248.2227272727197 182.1790909090992 0  248.8818181818179 181.4527272727275 0  249.5409090909066 180.7263636363664 0  250.8666666666961 179.3666666666387 0  251.5333333334033 178.7333333332668 0  252.2000000000994 178.0999999999055 0  252.8666666668011 177.466666666539 0  253.5333333335083 176.8333333331671 0  254.2000000002044 176.1999999998058 0  254.8666666669005 175.5666666664445 0  255.5333333336077 174.9333333330727 0  256.2000000002685 174.2999999997449 0  256.8666666668457 173.6666666664966 0  257.5333333334283 173.033333333243 0  257.9000000000077 171.6500000000191 0  257.6000000000015 170.9000000000038 0  257.2999999999954 170.1499999999885 0  257.2230769230778 168.4769230769195 0  257.4461538461543 167.5538461538442 0  257.6692307692309 166.6307692307688 0  257.8923076923074 165.7076923076935 0  258.115384615384 164.7846153846181 0  258.3384615384605 163.8615384615427 0  258.5615384615395 162.9384615384572 0  258.784615384616 162.0153846153819 0  259.0076923076926 161.0923076923065 0  259.2307692307691 160.1692307692311 0  259.4538461538457 159.2461538461558 0  259.6769230769222 158.3230769230804 0  259.750000000001 156.512500000006 0  259.6000000000014 155.6250000000082 0  259.4500000000029 154.7375000000176 0  259.3000000000018 153.8500000000108 0  259.1500000000007 152.962500000004 0  259.0000000000004 152.0750000000026 0  258.849999999999 151.187499999994 0  258.9875000000052 149.4499999999846 0  259.275000000002 148.5999999999941 0  259.5624999999954 147.7500000000135 0  259.849999999995 146.900000000015 0  260.1374999999945 146.0500000000164 0  260.4249999999913 145.2000000000259 0  260.7124999999948 144.3500000000154 0  260.0700000000398 143.5899999999961 0  259.1400000000573 143.6799999999944 0  258.2100000000351 143.7699999999966 0  257.2800000000262 143.8599999999975 0  256.350000000011 143.9499999999989 0  255.4199999999881 144.0400000000011 0  254.4899999999726 144.1300000000026 0  253.5599999999944 144.2200000000005 0  252.6300000000009 144.3099999999999 0  251.4166666666658 143.4499999999971 0  251.1333333333388 142.5000000000182 0  250.8500000000015 141.5500000000051 0  250.5666666666612 140.5999999999818 0  250.2833333333342 139.6500000000029 0  249.2500000000005 138.5500000000001 0  248.5000000000011 138.4000000000002 0  247.7499999999995 138.2499999999999 0  246.7750000000005 137.1875000000023 0  246.5500000000021 136.2750000000085 0  246.3250000000036 135.3625000000147 0  246.1000000000042 134.450000000017 0  245.8750000000022 133.5375000000088 0  245.650000000003 132.6250000000124 0  245.4250000000046 131.7125000000187 0  245.619999999996 129.9200000000084 0  246.0399999999992 129.0400000000017 0  246.4599999999987 128.1600000000028 0  246.8800000000001 127.2799999999997 0  246.8399999999988 125.6199999999979 0  246.3799999999984 124.8399999999973 0  245.9199999999991 124.0599999999985 0  245.4600000000036 123.2800000000062 0  245.0000000000049 122.5000000000082 0  244.5400000000036 121.7200000000062 0  244.0800000000033 120.9400000000056 0  243.6200000000016 120.1600000000027 0  243.1600000000012 119.3800000000021 0  241.9812499999996 117.9187499999997 0  241.2625000000007 117.2375000000007 0  240.5437500000017 116.5562500000017 0  239.8250000000041 115.875000000004 0  239.1062500000066 115.1937500000063 0  238.3875000000076 114.5125000000072 0  237.6687500000087 113.8312500000082 0  236.9500000000083 113.1500000000079 0  236.231250000008 112.4687500000076 0  235.512500000009 111.7875000000085 0  234.7937500000045 111.1062500000043 0  234.0750000000042 110.4250000000039 0  233.3562500000066 109.7437500000062 0  232.6375000000021 109.062500000002 0  231.9187500000031 108.381250000003 0  230.5500000000004 107.0375000000004 0  229.9000000000021 106.3750000000021 0  229.2500000000038 105.7125000000039 0  228.6000000000041 105.0500000000042 0  227.9500000000018 104.3875000000018 0  227.2999999999952 103.7249999999951 0  226.6500000000024 103.0625000000024 0  226.0555555555555 101.4555555555556 0  226.1111111111111 100.5111111111111 0  226.1666666666667 99.56666666666668 0  226.2222222222222 98.62222222222223 0  226.2777777777778 97.67777777777778 0  226.3333333333333 96.73333333333335 0  226.3888888888889 95.78888888888889 0  226.4444444444445 94.84444444444446 0  226 93.22499999999999 0  225.5000000000026 92.55000000000358 0  225.0000000000026 91.87500000000358 0  224.5 90.31250000000068 0  224.5 89.4250000000097 0  224.5 88.53750000001317 0  224.5 87.65000000001388 0  224.5 86.76250000001457 0  224.5 85.87500000001248 0  224.5 84.9874999999993 0  225.1666666666659 83.41333333333409 0  225.8333333333319 82.72666666666818 0  226.4999999999978 82.04000000000228 0  227.1666666666649 81.35333333333514 0  227.8333333333301 80.66666666667 0  228.4999999999942 79.980000000006 0  229.1666666666601 79.2933333333401 0  229.8333333333316 78.60666666666847 0  230.4999999999975 77.92000000000257 0  231.1666666666644 77.23333333333572 0  231.8333333333295 76.54666666667057 0  232.4999999999972 75.86000000000287 0  233.1666666666681 75.17333333333181 0  233.8333333333368 74.48666666666306 0  233.7499999999995 73.16666666666629 0  233.0000000000018 72.53333333333488 0  232.2500000000014 71.90000000000116 0  231.5000000000009 71.26666666666743 0  230.7500000000005 70.63333333333372 0  229.233333333333 68.75000000000006 0  230.0666666666665 68.60000000000004 0  230.8999999999995 68.45000000000009 0  231.7333333333325 68.30000000000015 0  232.566666666667 68.14999999999995 0  232.5499999999897 68.50000000000607 0  231.7 69 0  230.8500000000103 69.49999999999393 0  227.8300000000008 68.16000000000106 0  227.2600000000064 67.42000000000837 0  226.6900000000077 66.68000000001001 0  226.1200000000024 65.94000000000314 0  225.5500000000108 65.20000000001409 0  224.9800000000098 64.46000000001268 0  224.4100000000007 63.72000000000098 0  223.8399999999971 62.97999999999621 0  223.2699999999993 62.23999999999915 0  222.753846153846 60.56923076923239 0  222.8076923076921 59.63846153846478 0  222.8615384615381 58.70769230769827 0  222.9153846153842 57.77692307693071 0  222.9692307692302 56.84615384616315 0  223.0230769230761 55.91538461539836 0  223.0769230769224 54.98461538462665 0  223.1307692307688 54.05384615385345 0  223.184615384615 53.12307692308312 0  223.2384615384611 52.19230769231556 0  223.2923076923071 51.26153846154906 0  223.3461538461533 50.33076923077847 0  222.8400000000024 48.62000000000327 0  222.2800000000047 47.84000000000661 0  221.7200000000005 47.06000000000071 0  221.1600000000003 46.28000000000039 0  221.4500000000116 45.87500000000512 0  222.3 46.25 0  223.1499999999884 46.62499999999488 0  223.5600000000055 46.22000000000981 0  223.1199999999987 45.43999999999767 0  222.6800000000061 44.66000000001075 0  222.2399999999969 43.8799999999944 0  221.6400000000004 42.16000000000253 0  221.4800000000009 41.22000000000548 0  221.3200000000014 40.28000000000801 0  221.1600000000009 39.34000000000556 0  220.25 38.45 0  219.4749999999999 39.30000000000165 0  219.45 40.09999999999999 0  219.425 40.90000000000112 0  219.0166666666641 40.89999999999463 0  218.6333333333375 40.10000000000875 0  218.2500000000016 39.30000000000339 0  217.8666666666635 38.49999999999351 0  217.483333333337 37.70000000000762 0  216.1750000000165 36.78750000000201 0  215.2500000000275 36.67500000000335 0  214.3250000000385 36.56250000000469 0  213.4000000000277 36.45000000000337 0  212.4750000000059 36.33750000000072 0  211.5499999999838 36.22499999999803 0  210.6249999999835 36.11249999999799 0  209.6600000000001 35.14000000000318 0  209.6200000000001 34.28000000000268 0  209.5800000000001 33.42000000000284 0  209.5399999999998 32.55999999999681 0  208.6200000000117 31.34000000000476 0  207.7400000000138 30.98000000000564 0  206.8600000000162 30.62000000000662 0  205.9800000000174 30.26000000000711 0  204.2000000000054 30.02499999999925 0  203.2999999999946 30.15000000000076 0  202.3999999999945 30.27500000000076 0  201.2444444444438 31.32222222222468 0  200.9888888888895 32.24444444
[...]
<PointData  Vectors="f_12"> 
<DataArray  type="Float64"  Name="f_12"  NumberOfComponents="3" format="ascii">4.9362911506948653e-01 1.5864194927209652e-01 4.7006214653740391e-01  4.9362911498065914e-01 1.5864195206285633e-01 4.7006214532955531e-01  4.9362911384182295e-01 1.5864197264918620e-01 4.7006213373965394e-01  4.9362910999464865e-01 1.5864202161812410e-01 4.7006209985802211e-01  4.9362875804224721e-01 1.5864462162339477e-01 4.7005948230282413e-01  4.9362614789386444e-01 1.5865821218208256e-01 4.7004153832400258e-01  4.9362583542152383e-01 1.5866019532423886e-01 4.7003929811321649e-01  4.9355420559392532e-01 1.5891845159854326e-01 4.6957587476617940e-01  4.9327086705868517e-01 1.5984851690584700e-01 4.6775523835080174e-01  4.9285528264876999e-01 1.6125087141575062e-01 4.6502881894749099e-01  4.8982654562037542e-01 1.7584900668147899e-01 4.4251902500383689e-01  4.8837718049010342e-01 1.8812207034592823e-01 4.2870815919978128e-01  4.8918488000675170e-01 2.3760389554883701e-01 4.0579803122498687e-01  5.0810357432186015e-01 3.8150431937002188e-01 4.1399936157799844e-01  5.0795035694559276e-01 3.8175353581276522e-01 4.1418228380485961e-01  5.0780483812348154e-01 3.8400438474613646e-01 4.1194333553076978e-01  5.0904430023190983e-01 3.8923551895892478e-01 4.1438758137770093e-01  5.1190484017822513e-01 3.9909899348539979e-01 4.2148332290582108e-01  5.0982627746288378e-01 3.8980136037844870e-01 4.1808921044710345e-01  5.1120547644611380e-01 3.9577383485144313e-01 4.2055784787546752e-01  5.1062111287227352e-01 3.9334647386971811e-01 4.1945347075438716e-01  5.1032616629657346e-01 3.9224522427823455e-01 4.1880113041463524e-01  5.1478219617925902e-01 4.0768507162872808e-01 4.2907620929141610e-01  5.1451843154340904e-01 4.0281199896520942e-01 4.3126264539145043e-01  5.1441183802762769e-01 4.0111714146306171e-01 4.3208855735142160e-01  5.1484268332305894e-01 4.0340649844888549e-01 4.3233999908454684e-01  5.1468013922659606e-01 4.0368167563282786e-01 4.3135909210091128e-01  5.1504999464241907e-01 4.0486402090679330e-01 4.3220679211019275e-01  5.1504563569120410e-01 4.0485821065458721e-01 4.3219054477825025e-01  5.1439993778129611e-01 4.0390472101895308e-01 4.2985051985171391e-01  5.1288060668687208e-01 4.0313869885464654e-01 4.2315219392087666e-01  5.0939610500745403e-01 3.9528227912179004e-01 4.1196445368351620e-01  5.0776364680461572e-01 3.9109554487718168e-01 4.0693299662072291e-01  5.0728377170333794e-01 3.8966464374520993e-01 4.0557460545995733e-01  5.0715446426653010e-01 3.8922118511359299e-01 4.0524992792981107e-01  5.0781368560471585e-01 3.9067376340993215e-01 4.0750487989944512e-01  5.0878737121978168e-01 3.9278776272212224e-01 4.1081451687805864e-01  5.1077409997139855e-01 3.9513400116687702e-01 4.1892453547931435e-01  5.1169228619327645e-01 3.9710975570583246e-01 4.2199167535952897e-01  5.1189064909335158e-01 3.9690287262048690e-01 4.2313849723661517e-01  5.1341685453132957e-01 4.0134925945626654e-01 4.2739504955585900e-01  5.1348233185858405e-01 4.0181978909236787e-01 4.2735351128408061e-01  5.1260867756576856e-01 3.9916375308249519e-01 4.2500188913779219e-01  5.1306202239486798e-01 4.0082117698743680e-01 4.2599504262593546e-01  5.1466354543684523e-01 4.0794424459431367e-01 4.2849833824415079e-01  5.1612384196154049e-01 4.1777280523729604e-01 4.2810637162680970e-01  5.1471553604834608e-01 4.1503500449429809e-01 4.2338732320391298e-01  5.1349164390667146e-01 4.0993326579166284e-01 4.2122696688836497e-01  5.0911897999146305e-01 3.9054366960503106e-01 4.1376422261421247e-01  5.0556208097777677e-01 3.7229394322836146e-01 4.0877715721870944e-01  5.0497744837535419e-01 3.6425976955991224e-01 4.1143659406064037e-01  5.0757822376265860e-01 3.6694594502270522e-01 4.2267706446938769e-01  5.1216514393015000e-01 3.8060266009971822e-01 4.3538250616196117e-01  5.1578413900645648e-01 3.9216661077661574e-01 4.4415914904835679e-01  5.1791526449133007e-01 4.0011094593907087e-01 4.4802488194230466e-01  5.1841579118982495e-01 4.0292060461998352e-01 4.4771481227817622e-01  5.0718749744118075e-01 3.5072753378148158e-01 4.2969477159132891e-01  4.9124433479481305e-01 2.3306224473255208e-01 4.2010577193393106e-01  4.8955005058775858e-01 2.1389414151454203e-01 4.2175311657512560e-01  4.8990274545364904e-01 1.8161240679136981e-01 4.4029598041258666e-01  4.9285114968418087e-01 1.6153372608064057e-01 4.6492429925928447e-01  4.9315191624454541e-01 1.6041369343496040e-01 4.6693747918270612e-01  4.9320439622559353e-01 1.6022077164242943e-01 4.6728250653884745e-01  4.9337066052538608e-01 1.5962013714163473e-01 4.6836982640099512e-01  4.9353902654947085e-01 1.5901602657096778e-01 4.6946564588537743e-01  4.9362029720801215e-01 1.5868925641174650e-01 4.7000109414533736e-01  4.9362752824182976e-01 1.5865230529874286e-01 4.7005068626826757e-01  4.9362847612238081e-01 1.5864675341381912e-01 4.7005736890780420e-01  4.9362872631775040e-01 1.5864508715356826e-01 4.7005918452995687e-01  4.9362898553897627e-01 1.5864320828510847e-01 4.7006110484823926e-01  4.9362897545387441e-01 1.5864331462678635e-01 4.7006102159263713e-01  4.9362909322109721e-01 1.5864224559712148e-01 4.7006194931784356e-01  4.9362911316788938e-01 1.5864198428251589e-01 4.7006212701120825e-01  4.9362911455642960e-01 1.5864196271623932e-01 4.7006214024390275e-01  4.9362909338693484e-01 1.5864222253259758e-01 4.7006195616423779e-01  4.9362911427361994e-01 1.5864196552354312e-01 4.7006213795724605e-01  4.9362911489314409e-01 1.5864195369793146e-01 4.7006214442485988e-01  4.9362911502122386e-01 1.5864195082479260e-01 4.7006214587169259e-01  4.9362911506655849e-01 1.5864194941319096e-01 4.7006214648499384e-01  4.9362911506888624e-01 1.5864194931060760e-01 4.7006214652420208e-01  4.9362911506939211e-01 1.5864194927761835e-01 4.7006214653546485e-01  4.9362911506921370e-01 1.5864194928868958e-01 4.7006214653163703e-01  4.9362911506904184e-01 1.5864194930026967e-01 4.7006214652771505e-01  4.9362911506833823e-01 1.5864194934177406e-01 4.7006214651317202e-01  4.9362911506719653e-01 1.5864194940234910e-01 4.7006214649131173e-01  4.9362911506542501e-01 1.5864194948928564e-01 4.7006214645920114e-01  4.9362911506282825e-01 1.5864194960588690e-01 4.7006214641491012e-01  4.9362911505912838e-01 1.5864194975817345e-01 4.7006214635535609e-01  4.9362911505402352e-01 1.5864194995153305e-01 4.7006214627748488e-01  4.9362911504676332e-01 1.5864195020285984e-01 4.7006214617280467e-01  4.9362911503688400e-01 1.5864195051981583e-01 4.7006214603678398e-01  4.9362911502369938e-01 1.5864195091381020e-01 4.7006214586269562e-01  4.9362911500536388e-01 1.5864195142111098e-01 4.7006214563100968e-01  4.9362911495237888e-01 1.5864195276487636e-01 4.7006214499283400e-01  4.9362911491892486e-01 1.5864195356112232e-01 4.7006214460328222e-01  4.9362911487635747e-01 1.5864195452174432e-01 4.7006214412107999e-01  4.9362911482312410e-01 1.5864195566884312e-01 4.7006214353195669e-01  4.9362911475730797e-01 1.5864195702610784e-01 4.7006214281921421e-01  4.9362911467787157e-01 1.5864195860361716e-01 4.7006214197451984e-01  4.9362911457822123e-01 1.5864196049077442e-01 4.7006214093840248e-01  4.9362911445608887e-01 1.5864196270249376e-01 4.7006213969446081e-01  4.9362911431006234e-01 1.5864196522954549e-01 4.7006213823723009e-01  4.9362911414154415e-01 1.5864196801357122e-01 4.7006213658943297e-01  4.9362911396578474e-01 1.5864197078344583e-01 4.7006213490510229e-01  4.9362911361249362e-01 1.5864197582501585e-01 4.7006213165419813e-01  4.9362911303026502e-01 1.5864198364999579e-01 4.7006212642051881e-01  4.9362911197660703e-01 1.5864199724109929e-01 4.7006211709506940e-01  4.9362910671338961e-01 1.5864205986129498e-01 4.7006207186270971e-01  4.9362910268630306e-01 1.5864210392990102e-01 4.7006203823864051e-01  4.9362909722974746e-01 1.5864216012820809e-01 4.7006199357937323e-01  4.9362908973714048e-01 1.5864223303883063e-01 4.7006193334708174e-01  4.9362907949413010e-01 1.5864232753974569e-01 4.7006185233090836e-01  4.9362906562507014e-01 1.5864244919106263e-01 4.7006174425123504e-01  4.9362904706380972e-01 1.5864260434552946e-01 4.7006160156962573e-01  4.9362902254627589e-01 1.5864280006809087e-01 4.7006141546865793e-01  4.9362899048468900e-01 1.5864304468137858e-01 4.7006117501536199e-01  4.9362894843616478e-01 1.5864335098067503e-01 4.7006086339221187e-01  4.9362889545164379e-01 1.5864372111295277e-01 4.7006047479400359e-01  4.9362882985979256e-01 1.5864416000098908e-01 4.7005999870445048e-01  4.9362865901160147e-01 1.5864522750655985e-01 4.7005877813429015e-01  4.9362850875696307e-01 1.5864611463379244e-01 4.7005771803758462e-01  4.9362830413767733e-01 1.5864727980064336e-01 4.7005628548589307e-01  4.9362803483469947e-01 1.5864875698368625e-01 4.7005441465910869e-01  4.9362769178234589e-01 1.5865057213739528e-01 4.7005204874938894e-01  4.9362726933613010e-01 1.5865273277857286e-01 4.7004915463576885e-01  4.9362675947804935e-01 1.5865526018912993e-01 4.7004568251461792e-01  4.9362573422692280e-01 1.5866023303112439e-01 4.7003872903181271e-01  4.9362546403070712e-01 1.5866154240185237e-01 4.7003689684145267e-01  4.9362536909715543e-01 1.5866204644398577e-01 4.7003624173636022e-01  4.9362537976392268e-01 1.5866206286352860e-01 4.7003629646236145e-01  4.9362548363722847e-01 1.5866165807140739e-01 4.7003697532549754e-01  4.9362563239388324e-01 1.5866104573340381e-01 4.7003795594914988e-01  4.9362577304549160e-01 1.5866045747428731e-01 4.7003888553538242e-01  4.9362571312604803e-01 1.5866070799867679e-01 4.7003848954273481e-01  4.9362524691981990e-01 1.5866265044146530e-01 4.7003541022338235e-01  4.9362430290272152e-01 1.5866653756320281e-01 4.7002918669110266e-01  4.9362271487435816e-01 1.5867296686600230e-01 4.7001874522140691e-01  4.9362019408765689e-01 1.5868295255696446e-01 4.7000222595018509e-01  4.9361633513653974e-01 1.5869786866687186e-01 4.6997702899205734e-01  4.9361046358083566e-01 1.5871996778327063e-01 4.6993883506264417e-01  4.9360136608014316e-01 1.5875328934014360e-01 4.6987987236560264e-01  4.9358618116279956e-01 1.5880740711340857e-01 4.6978179258219238e-01  4.9350517121612697e-01 1.5908427361793442e-01 4.6926092924474405e-01  4.9346015476950872e-01 1.5923344568610009e-01 4.6897218304551824e-01  4.9341072679604531e-01 1.5939493253070203e-01 4.6865517131978723e-01  4.9335826556993506e-01 1.5956507128792724e-01 4.6831834781042186e-01  4.9330748268719615e-01 1.5972950775800332e-01 4.6799163314571440e-01  4.9324153211586935e-01 1.5994482112206962e-01 4.6756476399154329e-01  4.9317339682228900e-01 1.6017031073575114e-01 4.6712089995330069e-01  4.9305968140377415e-01 1.6055191193496657e-01 4.6637624856471943e-01  4.9252935342625886e-01 1.6240432020358375e-01 4.6285492067990053e-01  4.9223338295239266e-01 1.6350760066627781e-01 4.6084592524982237e-01  4.9192209203166498e-01 1.6474263626443897e-01 4.5868757882101063e-01  4.9158501331316384e-01 1.6618023919147201e-01 4.5629065513732436e-01  4.9121752478044722e-01 1.6788391498258962e-01 4.5359715734564898e-01  4.9081630355034811e-01 1.6992400557865606e-01 4.5055118988440013e-01  4.9037141718734883e-01 1.7242726408265380e-01 4.4703358291312434e-01  4.8931401375979078e-01 1.7941998209792406e-01 4.3806654741147033e-01  4.8895276135324006e-01 1.8225514368159790e-01 4.3474581429418035e-01  4.8867816671030256e-01 1.8472446107609700e-01 4.3204546271624811e-01  4.8848131147510987e-01 1.8679190410513652e-01 4.2994624927119562e-01  4.8830435561625596e-01 1.8957761752060892e-01 4.2756192096019791e-01  4.8820558006717646e-01 1.9221334177175439e-01 4.2565194125313499e-01  4.8811460888696373e-01 1.9573411750941444e-01 4.2330241059035539e-01  4.8805420332855814e-01 2.0006645241930271e-01 4.2066283931451803e-01  4.8804579807068704e-01 2.0510093505743549e-01 4.1789625794830743e-01  4.8810581900588268e-01 2.1080446601555755e-01 4.1509876239192023e-01  4.8824832978585525e-01 2.1710698017487928e-01 4.1237550126521744e-01  4.8848168181272672e-01 2.2388069962333265e-01 4.0983527545297871e-01  4.8880424596734007e-01 2.3091150312823724e-01 4.0758526926787703e-01  4.8973433603693073e-01 2.4552695462095761e-01 4.0415852816698988e-01  4.9049590311491775e-01 2.5500086469158650e-01 4.0268671722484939e-01  4.9143421459441206e-01 2.6536559724033415e-01 4.0155155902065415e-01  4.9254653083836980e-01 2.7643790911588745e-01 4.0081854147532553e-01  4.9380936253243501e-01 2.8794686461747576e-01 4.0050519084009367e-01  4.9519830333331655e-01 2.9963859251834962e-01 4.0061911859071919e-01  4.9668528854467420e-01 3.1129232222421926e-01 4.0113734645094495e-01  4.9823272671798940e-01 3.2265425757056826e-01 4.0201863446606440e-01  4.9979474127296758e-01 3.3345429688089984e-01 4.0320261398980456e-01  5.0133598689794834e-01 3.4352330263528802e-01 4.0462892574154713e-01  5.0281417492151059e-01 3.5268223894474848e-01 4.0622000874470959e-01  5.0418709411712415e-01 3.6077002172043143e-01 4.0789478064390244e-01  5.0543319618301485e-01 3.6776282015579292e-01 4.0958998722140799e-01  5.0650038673085529e-01 3.7346597684410443e-01 4.1120511202125143e-01  5.0739468903880414e-01 3.7803682594276000e-01 4.1269485277329648e-01  5.0858750756441784e-01 3.8377188372074700e-01 4.1499300598810024e-01  5.0889265696856989e-01 3.8514183334009727e-01 4.1571379380889439e-01  5.0904105652273424e-01 3.8577653812150803e-01 4.1616290245872201e-01  5.0904279639250372e-01 3.8577152399117004e-01 4.1632371465602319e-01  5.0892113200989075e-01 3.8526938207292827e-01 4.1620865359851045e-01  5.0869636634348225e-01 3.8439188883102660e-01 4.1583072447170194e-01  5.0838005346359694e-01 3.8322636914856106e-01 4.1518458113320550e-01  5.0756736231585142e-01 3.8060186738076357e-01 4.1315054183354927e-01  5.0734137826343217e-01 3.8007068847424691e-01 4.1242558867689577e-01  5.0721641005031770e-01 3.7995296174781801e-01 4.1189505193063308e-01  5.0717814214649370e-01 3.8018012182634975e-01 4.1154433994114420e-01  5.0721577586811994e-01 3.8069308773014471e-01 4.1136594028463913e-01  5.0731854385031516e-01 3.8143210787132642e-01 4.1135090531695651e-01  5.0747064558799315e-01 3.8231901327493889e-01 4.1147701447710006e-01  5.0764836081364695e-01 3.8324576510674335e-01 4.1170306860329392e-01  5.0795937619952392e-01 3.8470416521630374e-01 4.1221606438659258e-01  5.0821443810902411e-01 3.8581702120535277e-01 4.1269535269783592e-01  5.0855744850131679e-01 3.8725979272731059e-01 4.1337575186504982e-01  5.0960186270589136e-01 3.9141073212620753e-01 4.1560133054527598e-01  5.1006855817107255e-01 3.9316300585675135e-01 4.1665973039674631e-01  5.1048756711541410e-01 3.9467917457556295e-01 4.1764575033157980e-01  5.1086525706827435e-01 3.9599600499205534e-01 4.1856681793182104e-01  5.1119790716654978e-01 3.9710326961646092e-01 4.1941403718672521e-01  5.1148411113987591e-01 3.9800922905017594e-01 4.2017653658578763e-01  5.1171887411687067e-01 3.9868640544678169e-01 4.2085180318484672e-01  5.1194817554537664e-01 3.9893656569875624e-01 4.2183416204309820e-01  5.1188473446263449e-01 3.9845238812594758e-01 4.2189093264012661e-01  5.1175865668305487e-01 3.9777717781303101e-01 4.2177718350321824e-01  5.1158881649019383e-01 3.9697365934772638e-01 4.2153964491334800e-01  5.1138949803687206e-01 3.9609079520455970e-01 4.2121227388553895e-01  5.1117272542689285e-01 3.9516955904424661e-01 4.2082391467925356e-01  5.1094861700019722e-01 3.9424387145529327e-01 4.2039944152640335e-01  5.1072635172163394e-01 3.9334416085756496e-01 4.1996196838547101e-01  5.1051474428343546e-01 3.9249999680968706e-01 4.1953380200894508e-01  5.1032126485391260e-01 3.9173608102976670e-01 4.1913438144742599e-01  5.1015290918538569e-01 3.9107622523436875e-01 4.1878167773946212e-01  5.1001533492510609e-01 3.9053935267249690e-01 4.1849065327896828e-01  5.0991338408189502e-01 3.9014223718745228e-01 4.1827380906534112e-01  5.0985083738866599e-01 3.8989874036431593e-01 4.1814040908545547e-01  5.0985283359708067e-01 3.8991854441171148e-01 4.1813623285669832e-01  5.0992460870288314e-01 3.9023846061719852e-01 4.1826087808263179e-01  5.1004160570200119e-01 3.9076033488713519e-01 4.1846318426717843e-01  5.1020127112201497e-01 3.9147068767751669e-01 4.1873937120095417e-01  5.1039834371546267e-01 3.9234651497068734e-01 4.1907905745433610e-01  5.1080859020599978e-01 3.9414991963330592e-01 4.1979216695921273e-01  5.1060065502539520e-01 3.9331265569251606e-01 4.1937857989413790e-01  5.1047882594373095e-01 3.9283550340248774e-01 4.1912538731250348e-01  5.1039841169233557e-01 3.9252399468883015e-01 4.1895520124086477e-01  5.1034945781256458e-01 3.9233507190408873e-01 4.1885086028407409e-01  5.1035414539572099e-01 3.9235315298875234e-01 4.1886086785047000e-01  5.1041909493986715e-01 3.9260347065676132e-01 4.1899951135562935e-01  5.1051929876876945e-01 3.9298695435033443e-01 4.1921476285702747e-01  5.1173159009456148e-01 3.9791811843399105e-01 4.2156898805458204e-01  5.1216105471444429e-01 3.9963170758091826e-01 4.2241079229182044e-01  5.1256192530339517e-01 4.0118470232808717e-01 4.2322074412021948e-01  5.1294578270208158e-01 4.0261741054276573e-01 4.2402715920304807e-01  5.1331277414243348e-01 4.0392306784178605e-01 4.2483699847615047e-01  5.1366055882714390e-01 4.0508654312566150e-01 4.2565128958480547e-01  5.1398463578310571e-01 4.0608183346961879e-01 4.2646891251855040e-01  5.1427962404716243e-01 4.0687574836945695e-01 4.2729002227687263e-01  5.1454347815821933e-01 4.0743592687891889e-01 4.2813023745923762e-01  5.1491068954223818e-01 4.0741262939815615e-01 4.2988247931476004e-01  5.1494568893814918e-01 4.0690037013675151e-01 4.3042286283046005e-01  5.1493446099551921e-01 4.0625201556625823e-01 4.3084455209889794e-01  5.1489168886856584e-01 4.0551922356230591e-01 4.3117875441512604e-01  5.1483070688937282e-01 4.0475705292926706e-01 4.3144764437827343e-01  5.1475912374682298e-01 4.0400131395275690e-01 4.3166066310396412e-01  5.1468436251533578e-01 4.0328804861463730e-01 4.3182627891338965e-01  5.1461235855877496e-01 4.0264683500458842e-01 4.3195082667751289e-01  5.1454765760454158e-01 4.0210105288168102e-01 4.3203875395412750e-01  5.1449381720502529e-01 4.0166839998590248e-01 4.3209414009706260e-01  5.1445288704290282e-01 4.0136062143230139e-01 4.3211838584070378e-01  5.1442541737389658e-01 4.0118100167338427e-01 4.3211222294717344e-01  5.1440433859705725e-01 4.0117436643462323e-01 4.3200306930104315e-01  5.1440043944565195e-01 4.0134541170334109e-01 4.3184682174342126e-01  5.1440453205637870e-01 4.0163748361657187e-01 4.3163609388668273e-01  5.1442715868778688e-01 4.0207497907034057e-01 4.3140199854518008e-01  5.1469747540148103e-01 4.0323088960506159e-01 4.3178792855021830e-01  5.1478300523030107e-01 4.0335458887498521e-01 4.3209761021060433e-01  5.1482654692062224e-01 4.0339492872577998e-01 4.3227257834069632e-01  5.1482747241679516e-01 4.0339573963226788e-01 4.3227633223332107e-01  5.1479205304090558e-01 4.0337737248631550e-01 4.3212290913527363e-01  5.1474389050094704e-01 4.0338268947675598e-01 4.3189090668118724e-01  5.1470112110548705e-01 4.0347129874311544e-01 4.3162026786860747e-01  5.1471407799344226e-01 4.0399460084034788e-01 4.3127978279596935e-01  5.1479962760337994e-01 4.0430538499108126e-01 4.3144732003892733e-01  5.1491524634836527e-01 4.0458712128185231e-01 4.3177994237056783e-01  5.1501185509136527e-01 4.0478836867933782e-01 4.3208392988762157e-01  5.1504548473554257e-01 4.0485660869128226e-01 4.3219106945592550e-01  5.1501330627389219e-01 4.0479988405055983e-01 4.3208187026144573e-01  5.1492163895925480e-01 4.0463921901221822e-01 4.3176986516029187e-01  5.1474590733488568e-01 4.0436443768308084e-01 4.3114517848319878e-01  5.1392782693653549e-01 4.0367888943774888e-01 4.2776937585594632e-01  5.1362718983422295e-01 4.0358526394756344e-01 4.2640227922314711e-01  5.1337942058699471e-01 4.0349481569909357e-01 4.2528275442692903e-01  5.1316369042843413e-01 4.0337959443657795e-01 4.2433345948962009e-01  5.1298761814688631e-01 4.0324780171561919e-01 4.2358565213957300e-01  5.1274599870529114e-01 4.0292297902420510e-01 4.2266432382374358e-01  5.1249918204891742e-01 4.0247698940851462e-01 4.2180540154958285e-01  5.1217401121