<?xml version="1.0"?>
<VTKFile type="UnstructuredGrid"  version="0.1"  >
<UnstructuredGrid>
<Piece  NumberOfPoints="7288" NumberOfCells="14083">
<Points>
<DataArray  type="Float64"  NumberOfComponents="3"  format="ascii">239.8 188 0  250.2 180 0  258.2 172.4 0  257 169.4 0  259.9 157.4 0  258.7 150.3 0  261 143.5 0  251.7 144.4 0  250 138.7 0  247 138.1 0  245.2 130.8 0  247.3 126.4 0  242.7 118.6 0  231.2 107.7 0  226 102.4 0  226.5 93.90000000000001 0  224.5 91.19999999999999 0  224.5 84.09999999999999 0  234.5 73.80000000000001 0  228.4 68.90000000000001 0  230 70 0  233.4 68 0  222.7 61.5 0  220.6 45.5 0  223.4 49.40000000000001 0  224 47 0  221.8 43.09999999999999 0  221 38.40000000000001 0  219.5 38.5 0  219.4 41.69999999999999 0  217.1 36.90000000000001 0  209.7 36 0  209.5 31.69999999999999 0  205.1 29.90000000000001 0  201.5 30.40000000000001 0  199.2 38.69999999999999 0  201.8 41.40000000000001 0  194.8 53.80000000000001 0  196.1 57.69999999999999 0  193 59 0  191.4 66.09999999999999 0  193.5 66.5 0  194.1 64.40000000000001 0  195.6 64.69999999999999 0  195.4 72.40000000000001 0  199.5 77.30000000000001 0  197.7 86.90000000000001 0  200.6 87.5 0  201.5 91 0  198 94.80000000000001 0  198.6 100 0  197.3 105.4 0  198 109.5 0  197 112.7 0  198.3 116.1 0  201.3 122 0  207.2 121 0  208.1 126.7 0  205.6 127.9 0  209.1 134.9 0  210.9 144.4 0  210.1 147.9 0  213 148.4 0  215.4 149.3 0  215.1 152.8 0  219.9 159.7 0  220.3 163.2 0  218.7 164.9 0  219.9 166.7 0  221.9 169.7 0  220 170.3 0  224.9 174.7 0  229.8 177.4 0  229.7 181 0  228 172.9 0  239 178 0  240.4 180 0  239 181.5 0  241.2 185.9 0  242.95 187.99 0  240.5875 187.9975 0  241.375 187.995 0  242.1625 187.9925 0  243.6090909090879 187.2636363636397 0  244.2681818181765 186.5372727272785 0  244.9272727272692 185.810909090913 0  245.5863636363531 185.0845454545571 0  246.245454545445 184.3581818181923 0  246.9045454545351 183.6318181818295 0  247.5636363636303 182.9054545454612 0  248.2227272727197 182.1790909090992 0  248.8818181818179 181.4527272727275 0  249.5409090909066 180.7263636363664 0  250.8666666666961 179.3666666666387 0  251.5333333334033 178.7333333332668 0  252.2000000000994 178.0999999999055 0  252.8666666668011 177.466666666539 0  253.5333333335083 176.8333333331671 0  254.2000000002044 176.1999999998058 0  254.8666666669005 175.5666666664445 0  255.5333333336077 174.9333333330727 0  256.2000000002685 174.2999999997449 0  256.8666666668457 173.6666666664966 0  257.5333333334283 173.033333333243 0  257.9000000000077 171.6500000000191 0  257.6000000000015 170.9000000000038 0  257.2999999999954 170.1499999999885 0  257.2230769230778 168.4769230769195 0  257.4461538461543 167.5538461538442 0  257.6692307692309 166.6307692307688 0  257.8923076923074 165.7076923076935 0  258.115384615384 164.7846153846181 0  258.3384615384605 163.8615384615427 0  258.5615384615395 162.9384615384572 0  258.784615384616 162.0153846153819 0  259.0076923076926 161.0923076923065 0  259.2307692307691 160.1692307692311 0  259.4538461538457 159.2461538461558 0  259.6769230769222 158.3230769230804 0  259.750000000001 156.512500000006 0  259.6000000000014 155.6250000000082 0  259.4500000000029 154.7375000000176 0  259.3000000000018 153.8500000000108 0  259.1500000000007 152.962500000004 0  259.0000000000004 152.0750000000026 0  258.849999999999 151.187499999994 0  258.9875000000052 149.4499999999846 0  259.275000000002 148.5999999999941 0  259.5624999999954 147.7500000000135 0  259.849999999995 146.900000000015 0  260.1374999999945 146.0500000000164 0  260.4249999999913 145.2000000000259 0  260.7124999999948 144.3500000000154 0  260.0700000000398 143.5899999999961 0  259.1400000000573 143.6799999999944 0  258.2100000000351 143.7699999999966 0  257.2800000000262 143.8599999999975 0  256.350000000011 143.9499999999989 0  255.4199999999881 144.0400000000011 0  254.4899999999726 144.1300000000026 0  253.5599999999944 144.2200000000005 0  252.6300000000009 144.3099999999999 0  251.4166666666658 143.4499999999971 0  251.1333333333388 142.5000000000182 0  250.8500000000015 141.5500000000051 0  250.5666666666612 140.5999999999818 0  250.2833333333342 139.6500000000029 0  249.2500000000005 138.5500000000001 0  248.5000000000011 138.4000000000002 0  247.7499999999995 138.2499999999999 0  246.7750000000005 137.1875000000023 0  246.5500000000021 136.2750000000085 0  246.3250000000036 135.3625000000147 0  246.1000000000042 134.450000000017 0  245.8750000000022 133.5375000000088 0  245.650000000003 132.6250000000124 0  245.4250000000046 131.7125000000187 0  245.619999999996 129.9200000000084 0  246.0399999999992 129.0400000000017 0  246.4599999999987 128.1600000000028 0  246.8800000000001 127.2799999999997 0  246.8399999999988 125.6199999999979 0  246.3799999999984 124.8399999999973 0  245.9199999999991 124.0599999999985 0  245.4600000000036 123.2800000000062 0  245.0000000000049 122.5000000000082 0  244.5400000000036 121.7200000000062 0  244.0800000000033 120.9400000000056 0  243.6200000000016 120.1600000000027 0  243.1600000000012 119.3800000000021 0  241.9812499999996 117.9187499999997 0  241.2625000000007 117.2375000000007 0  240.5437500000017 116.5562500000017 0  239.8250000000041 115.875000000004 0  239.1062500000066 115.1937500000063 0  238.3875000000076 114.5125000000072 0  237.6687500000087 113.8312500000082 0  236.9500000000083 113.1500000000079 0  236.231250000008 112.4687500000076 0  235.512500000009 111.7875000000085 0  234.7937500000045 111.1062500000043 0  234.0750000000042 110.4250000000039 0  233.3562500000066 109.7437500000062 0  232.6375000000021 109.062500000002 0  231.9187500000031 108.381250000003 0  230.5500000000004 107.0375000000004 0  229.9000000000021 106.3750000000021 0  229.2500000000038 105.7125000000039 0  228.6000000000041 105.0500000000042 0  227.9500000000018 104.3875000000018 0  227.2999999999952 103.7249999999951 0  226.6500000000024 103.0625000000024 0  226.0555555555555 101.4555555555556 0  226.1111111111111 100.5111111111111 0  226.1666666666667 99.56666666666668 0  226.2222222222222 98.62222222222223 0  226.2777777777778 97.67777777777778 0  226.3333333333333 96.73333333333335 0  226.3888888888889 95.78888888888889 0  226.4444444444445 94.84444444444446 0  226 93.22499999999999 0  225.5000000000026 92.55000000000358 0  225.0000000000026 91.87500000000358 0  224.5 90.31250000000068 0  224.5 89.4250000000097 0  224.5 88.53750000001317 0  224.5 87.65000000001388 0  224.5 86.76250000001457 0  224.5 85.87500000001248 0  224.5 84.9874999999993 0  225.1666666666659 83.41333333333409 0  225.8333333333319 82.72666666666818 0  226.4999999999978 82.04000000000228 0  227.1666666666649 81.35333333333514 0  227.8333333333301 80.66666666667 0  228.4999999999942 79.980000000006 0  229.1666666666601 79.2933333333401 0  229.8333333333316 78.60666666666847 0  230.4999999999975 77.92000000000257 0  231.1666666666644 77.23333333333572 0  231.8333333333295 76.54666666667057 0  232.4999999999972 75.86000000000287 0  233.1666666666681 75.17333333333181 0  233.8333333333368 74.48666666666306 0  233.7499999999995 73.16666666666629 0  233.0000000000018 72.53333333333488 0  232.2500000000014 71.90000000000116 0  231.5000000000009 71.26666666666743 0  230.7500000000005 70.63333333333372 0  229.233333333333 68.75000000000006 0  230.0666666666665 68.60000000000004 0  230.8999999999995 68.45000000000009 0  231.7333333333325 68.30000000000015 0  232.566666666667 68.14999999999995 0  232.5499999999897 68.50000000000607 0  231.7 69 0  230.8500000000103 69.49999999999393 0  227.8300000000008 68.16000000000106 0  227.2600000000064 67.42000000000837 0  226.6900000000077 66.68000000001001 0  226.1200000000024 65.94000000000314 0  225.5500000000108 65.20000000001409 0  224.9800000000098 64.46000000001268 0  224.4100000000007 63.72000000000098 0  223.8399999999971 62.97999999999621 0  223.2699999999993 62.23999999999915 0  222.753846153846 60.56923076923239 0  222.8076923076921 59.63846153846478 0  222.8615384615381 58.70769230769827 0  222.9153846153842 57.77692307693071 0  222.9692307692302 56.84615384616315 0  223.0230769230761 55.91538461539836 0  223.0769230769224 54.98461538462665 0  223.1307692307688 54.05384615385345 0  223.184615384615 53.12307692308312 0  223.2384615384611 52.19230769231556 0  223.2923076923071 51.26153846154906 0  223.3461538461533 50.33076923077847 0  222.8400000000024 48.62000000000327 0  222.2800000000047 47.84000000000661 0  221.7200000000005 47.06000000000071 0  221.1600000000003 46.28000000000039 0  221.4500000000116 45.87500000000512 0  222.3 46.25 0  223.1499999999884 46.62499999999488 0  223.5600000000055 46.22000000000981 0  223.1199999999987 45.43999999999767 0  222.6800000000061 44.66000000001075 0  222.2399999999969 43.8799999999944 0  221.6400000000004 42.16000000000253 0  221.4800000000009 41.22000000000548 0  221.3200000000014 40.28000000000801 0  221.1600000000009 39.34000000000556 0  220.25 38.45 0  219.4749999999999 39.30000000000165 0  219.45 40.09999999999999 0  219.425 40.90000000000112 0  219.0166666666641 40.89999999999463 0  218.6333333333375 40.10000000000875 0  218.2500000000016 39.30000000000339 0  217.8666666666635 38.49999999999351 0  217.483333333337 37.70000000000762 0  216.1750000000165 36.78750000000201 0  215.2500000000275 36.67500000000335 0  214.3250000000385 36.56250000000469 0  213.4000000000277 36.45000000000337 0  212.4750000000059 36.33750000000072 0  211.5499999999838 36.22499999999803 0  210.6249999999835 36.11249999999799 0  209.6600000000001 35.14000000000318 0  209.6200000000001 34.28000000000268 0  209.5800000000001 33.42000000000284 0  209.5399999999998 32.55999999999681 0  208.6200000000117 31.34000000000476 0  207.7400000000138 30.98000000000564 0  206.8600000000162 30.62000000000662 0  205.9800000000174 30.26000000000711 0  204.2000000000054 30.02499999999925 0  203.2999999999946 30.15000000000076 0  202.3999999999945 30.27500000000076 0  201.2444444444438 31.32222222222468 0  200.9888888888895 32.24444444
[...]
<PointData  Vectors="f_12"> 
<DataArray  type="Float64"  Name="f_12"  NumberOfComponents="3" format="ascii">5.0857605216340818e-01 4.2809063703565525e-01 3.8548281639076459e-01  5.0968706176077938e-01 4.3332927512282804e-01 3.8718364892666540e-01  5.1101391577327415e-01 4.3939247974024975e-01 3.8926243735824695e-01  5.1163326769813511e-01 4.4209625314806111e-01 3.9028361572479714e-01  5.1584408289320938e-01 4.5948192298461360e-01 3.9741240551763013e-01  5.1858963072729991e-01 4.6967441265776372e-01 4.0236769710665943e-01  5.1945564177879067e-01 4.7286321238364487e-01 4.0388003852894727e-01  5.2345783678660074e-01 4.8475552868194877e-01 4.1228557367360730e-01  5.2921325190632362e-01 5.0004035997192298e-01 4.2450858429095439e-01  5.3215483767998528e-01 5.0629308675036888e-01 4.3122862680227575e-01  5.4239147363638751e-01 5.2305774942670880e-01 4.5570008326462652e-01  5.4559921779480092e-01 5.2657727878541649e-01 4.6382116184827821e-01  5.4991270105066548e-01 5.2866185732047688e-01 4.7609189051975620e-01  5.5987986217661168e-01 5.2387011884754220e-01 5.0947224890196885e-01  5.6520926529903526e-01 5.1512605445082227e-01 5.3089753486248847e-01  5.6912856321561101e-01 5.0530856714947880e-01 5.4878197270772799e-01  5.7009343767667087e-01 5.0196993862876238e-01 5.5383228272186824e-01  5.7227364019773885e-01 4.9299071355560681e-01 5.6625199147383987e-01  5.7351170755395608e-01 4.8677506521524544e-01 5.7408983535128810e-01  5.7363754514467868e-01 4.8597675390041445e-01 5.7501277460981437e-01  5.7359751790853708e-01 4.8623892981898431e-01 5.7471283696597497e-01  5.7362264939234053e-01 4.8610148419369553e-01 5.7487981192576398e-01  5.7412654838640764e-01 4.8270381385627847e-01 5.7872274116491640e-01  5.7464656852879692e-01 4.7889950292486372e-01 5.8290092227745283e-01  5.7455831325940043e-01 4.7958509219119194e-01 5.8216232856106165e-01  5.7466508958589135e-01 4.7875542974054541e-01 5.8305599945106956e-01  5.7467064048513850e-01 4.7871058400579453e-01 5.8310376234260597e-01  5.7468747451516178e-01 4.7857782382811959e-01 5.8324607071073475e-01  5.7468745063610760e-01 4.7857800334670686e-01 5.8324587570449027e-01  5.7468220625096345e-01 4.7861811287820966e-01 5.8320251346658369e-01  5.7471354153413012e-01 4.7836476321141130e-01 5.8347218230316888e-01  5.7474874904947459e-01 4.7807378921418620e-01 5.8377994779430942e-01  5.7477296745139639e-01 4.7787342303053310e-01 5.8399175006362791e-01  5.7477854554287289e-01 4.7782702798217797e-01 5.8404071291725057e-01  5.7477885113860228e-01 4.7782441892526922e-01 5.8404344696827193e-01  5.7475355999732325e-01 4.7803285937354972e-01 5.8382290162126049e-01  5.7471556448834749e-01 4.7834236764963889e-01 5.8349425548675493e-01  5.7448487655960345e-01 4.8015567485467514e-01 5.8154714119494910e-01  5.7438153722074792e-01 4.8092273216458253e-01 5.8070849949281433e-01  5.7432117085853673e-01 4.8136857663083427e-01 5.8021998959867904e-01  5.7406372843280329e-01 4.8316664345268118e-01 5.7821387064256613e-01  5.7406711902764440e-01 4.8313839540557624e-01 5.7824391772403139e-01  5.7423148821587910e-01 4.8200077128350055e-01 5.7951719754546760e-01  5.7417519617132551e-01 4.8238899732835194e-01 5.7908237870406698e-01  5.7388134084506215e-01 4.8432516522135366e-01 5.7688006658822821e-01  5.7326203860664859e-01 4.8798394828840830e-01 5.7255056776377766e-01  5.7219459706876097e-01 4.9362752606305282e-01 5.6555960571346031e-01  5.7188138709640535e-01 4.9501446123671267e-01 5.6370928591218949e-01  5.7069818422340102e-01 5.0003929785552215e-01 5.5685193684602818e-01  5.6958847650306599e-01 5.0439431377071298e-01 5.5065460928729015e-01  5.6855859205420067e-01 5.0780510147061420e-01 5.4536129833077607e-01  5.6724152209911805e-01 5.1169585031763931e-01 5.3891589122044714e-01  5.6622299257323550e-01 5.1429688988860511e-01 5.3421550793463402e-01  5.6553175412213907e-01 5.1593306384189319e-01 5.3111114875483800e-01  5.6488543907109690e-01 5.1726738556610941e-01 5.2834898657828244e-01  5.6372696755099194e-01 5.1931470390489087e-01 5.2364093848050952e-01  5.6100857804048843e-01 5.2248246683708188e-01 5.1369836828300486e-01  5.5473425053503800e-01 5.2761459309236847e-01 4.9163897629507708e-01  5.5362665048109927e-01 5.2823277218448883e-01 4.8785620072662078e-01  5.4924674554147490e-01 5.2789262605094611e-01 4.7456639258467681e-01  5.4121415386024241e-01 5.2225050450739341e-01 4.5230009942602056e-01  5.4000997377419957e-01 5.2090459538037037e-01 4.4914246085682186e-01  5.3915839206184835e-01 5.1957030643051438e-01 4.4713625780980282e-01  5.3631708623420127e-01 5.1484218012566030e-01 4.4043500370912675e-01  5.3273315987876457e-01 5.0823899115874249e-01 4.3206419427542081e-01  5.2500713293443757e-01 4.8927923958742092e-01 4.1543582369719745e-01  5.2118096142477477e-01 4.7801814907872570e-01 4.0757167612876338e-01  5.2013374399983181e-01 4.7476002502341058e-01 4.0543683983646617e-01  5.1949790411179253e-01 4.7266147478069948e-01 4.0418678235429195e-01  5.1832061136285978e-01 4.6862224608869896e-01 4.0193199642644684e-01  5.1862027668552746e-01 4.6971241570844496e-01 4.0247395053186236e-01  5.1658140704674460e-01 4.6228876265229918e-01 3.9873303131917687e-01  5.1311985460451426e-01 4.4848999331940198e-01 3.9272846465449079e-01  5.1272572458426757e-01 4.4688332349129806e-01 3.9203431502038094e-01  5.1559567040780274e-01 4.5839056610289053e-01 3.9705058644240987e-01  5.1116486282973694e-01 4.3993536263236127e-01 3.8958323634773656e-01  5.0974337910156964e-01 4.3350933142254144e-01 3.8732014098370682e-01  5.0925406757877367e-01 4.3126261062822435e-01 3.8654400379495929e-01  5.0869273574359009e-01 4.2864203511924476e-01 3.8566329517017106e-01  5.0862159119416184e-01 4.2830704227054334e-01 3.8555260993708523e-01  5.0858192204979003e-01 4.2811847730496722e-01 3.8549184891598776e-01  5.0859456321618790e-01 4.2817850475519509e-01 3.8551125549606019e-01  5.0860894236021004e-01 4.2824688282357698e-01 3.8553326473929367e-01  5.0865370678014810e-01 4.2845947883500124e-01 3.8560186873513452e-01  5.0871118965033668e-01 4.2873217257194113e-01 3.8569001853817109e-01  5.0878547419493059e-01 4.2908437339750388e-01 3.8580384445826971e-01  5.0887256031882155e-01 4.2949694131228494e-01 3.8593717050086918e-01  5.0897023922958973e-01 4.2995921118162989e-01 3.8608660484494545e-01  5.0907550420608405e-01 4.3045682450033845e-01 3.8624749153828491e-01  5.0918838580528325e-01 4.3098950641664657e-01 3.8642003448336304e-01  5.0930652321716408e-01 4.3154595604524237e-01 3.8660063466732636e-01  5.0942799884452650e-01 4.3211693527108447e-01 3.8678640283456639e-01  5.0955466245351555e-01 4.3271058920390437e-01 3.8698044461566450e-01  5.0981121395335849e-01 4.3390781858187893e-01 3.8737449016736136e-01  5.0993215981289619e-01 4.3446963922264081e-01 3.8756083492850302e-01  5.1005399366265858e-01 4.3503343384002402e-01 3.8774921195366957e-01  5.1017682440317036e-01 4.3559963119557982e-01 3.8793983411225696e-01  5.1029988593181330e-01 4.3616463327864574e-01 3.8813153763627822e-01  5.1042227869681323e-01 4.3672432017193474e-01 3.8832293350515906e-01  5.1054428387595885e-01 4.3727977419040892e-01 3.8851460341037780e-01  5.1066378787683131e-01 4.3782142435769611e-01 3.8870323723924005e-01  5.1077755663466806e-01 4.3833474969891723e-01 3.8888371383921166e-01  5.1088138411154560e-01 4.3880105495007704e-01 3.8904931964589984e-01  5.1096664011716486e-01 4.3918215954710277e-01 3.8918610144214566e-01  5.1106657256420585e-01 4.3962392215557261e-01 3.8934894184222135e-01  5.1118297812543445e-01 4.4013404522483046e-01 3.8954064260582949e-01  5.1136013777019662e-01 4.4090783172382347e-01 3.8983282728584551e-01  5.1199100486610660e-01 4.4364527978945795e-01 3.9087444706614127e-01  5.1231636962660232e-01 4.4504470866466100e-01 3.9141294253282999e-01  5.1263958222653405e-01 4.4642452255153714e-01 3.9194956458200031e-01  5.1296619970836466e-01 4.4780786162607350e-01 3.9249394974437568e-01  5.1329697879560821e-01 4.4919722788780692e-01 3.9304769207298096e-01  5.1363122031884256e-01 4.5058909770057903e-01 3.9360987599165465e-01  5.1396742065236978e-01 4.5197675521599434e-01 3.9417816603988404e-01  5.1430386074834211e-01 4.5335294385306785e-01 3.9474979757083617e-01  5.1463766850970227e-01 4.5470567816364282e-01 3.9532004969952178e-01  5.1496747899023398e-01 4.5602929880658200e-01 3.9588689146513067e-01  5.1528700592596699e-01 4.5729941884942005e-01 3.9643939054976562e-01  5.1558910104931166e-01 4.5848839678222786e-01 3.9696527626274419e-01  5.1609701381625772e-01 4.6045482549469913e-01 3.9786067179130791e-01  5.1640270983314207e-01 4.6161927290473032e-01 3.9840603519749856e-01  5.1673696347351628e-01 4.6288029181473062e-01 3.9900562307481852e-01  5.1708853509471331e-01 4.6419348523630050e-01 3.9963961560118294e-01  5.1745095755342740e-01 4.6553406082172283e-01 4.0029601858030162e-01  5.1781908618428962e-01 4.6688337077746134e-01 4.0096487835123223e-01  5.1819342510038802e-01 4.6824386465483975e-01 4.0164647171084095e-01  5.1890631198897363e-01 4.7082165148625160e-01 4.0293742624526696e-01  5.1912630799894077e-01 4.7161863959284023e-01 4.0333049419456646e-01  5.1927299650778469e-01 4.7215548470407337e-01 4.0358763710973777e-01  5.1937046824880906e-01 4.7251705998909871e-01 4.0375464409866851e-01  5.1942625773326756e-01 4.7273057915461714e-01 4.0384562537756885e-01  5.1945154044468744e-01 4.7283424683150510e-01 4.0388219543920578e-01  5.1945707963627630e-01 4.7286430547200614e-01 4.0388531104749908e-01  5.1946606776887194e-01 4.7289365986720394e-01 4.0390326838367174e-01  5.1951038329654953e-01 4.7302718943126243e-01 4.0399920418734653e-01  5.1960339900178865e-01 4.7331168187616562e-01 4.0419745855019101e-01  5.1975559294355866e-01 4.7377900570370141e-01 4.0451977897998337e-01  5.1998243612826012e-01 4.7447555597514252e-01 4.0499816353216228e-01  5.2029851982247832e-01 4.7544233028890259e-01 4.0566321762464747e-01  5.2072258254638137e-01 4.7672885649886987e-01 4.0655465763344467e-01  5.2128848489585711e-01 4.7842605683990880e-01 4.0774306241535258e-01  5.2208251139400541e-01 4.8077133131840333e-01 4.0940755344175928e-01  5.2509348862319205e-01 4.8936679930912608e-01 4.1571241389751323e-01  5.2625960531969851e-01 4.9255029710001841e-01 4.1816576862750304e-01  5.2726493324030943e-01 4.9520179514681667e-01 4.2029624453923398e-01  5.2812028916391607e-01 4.9738145573577519e-01 4.2212725442859339e-01  5.2880523484664965e-01 4.9907059563058676e-01 4.2361079842962185e-01  5.2946900707656530e-01 5.0061445157486939e-01 4.2508554003712162e-01  5.3001434214181742e-01 5.0181183027491572e-01 4.2632385803909484e-01  5.3083380279184467e-01 5.0356041380430661e-01 4.2819596733023807e-01  5.3395104172230778e-01 5.0984351660095195e-01 4.3538393845299939e-01  5.3532473888942800e-01 5.1240674745531001e-01 4.3859129461370372e-01  5.3656390337224269e-01 5.1458609060630400e-01 4.4151232170506549e-01  5.3773409973961628e-01 5.1652250511021502e-01 4.4429948690455601e-01  5.3886347259696510e-01 5.1827579369907317e-01 4.4701917621041654e-01  5.3997496828411273e-01 5.1989208415374422e-01 4.4972497836559022e-01  5.4110460753261080e-01 5.2142746347163904e-01 4.5250358170748600e-01  5.4353874152004000e-01 5.2442020133553990e-01 4.5857231288081229e-01  5.4432471801004489e-01 5.2529744039994231e-01 4.6055444591868483e-01  5.4491947838029142e-01 5.2592196228886690e-01 4.6206687055263390e-01  5.4535501572182099e-01 5.2635210007372624e-01 4.6318557697762086e-01  5.4580913802231634e-01 5.2674359306227370e-01 4.6438414849123744e-01  5.4614855966817299e-01 5.2698965638805439e-01 4.6530794295454664e-01  5.4655828005697982e-01 5.2726174806804571e-01 4.6643664951162661e-01  5.4701541548890287e-01 5.2753805552197996e-01 4.6770994337435834e-01  5.4749739802314146e-01 5.2779916898744539e-01 4.6906774088127906e-01  5.4799517190650959e-01 5.2803798258587809e-01 4.7048511241346141e-01  5.4849935931083926e-01 5.2824840433650233e-01 4.7193605154802548e-01  5.4899922449546434e-01 5.2842495910342846e-01 4.7339051438008345e-01  5.4948170563850240e-01 5.2856466702075566e-01 4.7480981773572334e-01  5.5039269384538381e-01 5.2873258212981389e-01 4.7753979135615043e-01  5.5093906411486815e-01 5.2877318724110844e-01 4.7920872940659803e-01  5.5151548198250555e-01 5.2877429967539591e-01 4.8099109504676379e-01  5.5211487144278404e-01 5.2873027243802173e-01 4.8286754617282079e-01  5.5273024394512782e-01 5.2863867864453973e-01 4.8481776133778798e-01  5.5335700077698202e-01 5.2849628487111899e-01 4.8682936286259082e-01  5.5399325042743208e-01 5.2830066236522422e-01 4.8889792301838608e-01  5.5463639774541029e-01 5.2804996906729262e-01 4.9101673133435941e-01  5.5528355662393036e-01 5.2774322957078390e-01 4.9317782738945015e-01  5.5593452421194245e-01 5.2737799511234695e-01 4.9538227985647643e-01  5.5658792446189143e-01 5.2695345726689036e-01 4.9762676356136321e-01  5.5724192595136590e-01 5.2646923529056189e-01 4.9990639115106583e-01  5.5789850480762349e-01 5.2592120469632642e-01 5.0223000883896229e-01  5.5855389293839430e-01 5.2530882202963314e-01 5.0458695588193514e-01  5.5921311000682050e-01 5.2462713860372823e-01 5.0699592391161274e-01  5.6050532492763039e-01 5.2309524040831867e-01 5.1183391356424679e-01  5.6112209257362178e-01 5.2226735555458526e-01 5.1420129743128673e-01  5.6173697108505771e-01 5.2137938511596937e-01 5.1659960421133166e-01  5.6235587471184034e-01 5.2041636374035427e-01 5.1905604833497487e-01  5.6298251133176846e-01 5.1937379738559430e-01 5.2158431882368617e-01  5.6363120973035630e-01 5.1822180531083584e-01 5.2424572937947911e-01  5.6433475205756578e-01 5.1688866888703144e-01 5.2718270819284518e-01  5.6605061677466850e-01 5.1331803955773481e-01 5.3454183339338412e-01  5.6666059938831248e-01 5.1193105150254037e-01 5.3723129284733873e-01  5.6717226823957245e-01 5.1070558947272815e-01 5.3952631056923617e-01  5.6762022945440849e-01 5.0957919837520005e-01 5.4157025709600171e-01  5.6801878817704776e-01 5.0852987884508061e-01 5.4342033585895988e-01  5.6837304112138032e-01 5.0755458960203670e-01 5.4509409171889178e-01  5.6868370703418480e-01 5.0666166842692995e-01 5.4658843923121325e-01  5.6894512925753360e-01 5.0587907839781399e-01 5.4786833470206509e-01  5.6927514382199595e-01 5.0482954086253817e-01 5.4952900540495231e-01  5.6949087775182261e-01 5.0410311452263190e-01 5.5064396560027040e-01  5.6975243512984297e-01 5.0319381004591668e-01 5.5201617639579270e-01  5.7045989497787186e-01 5.0061003158669704e-01 5.5581536860217273e-01  5.7075806075894042e-01 4.9946579793855883e-01 5.5745529620758205e-01  5.7102704598574061e-01 4.9839954307592871e-01 5.5895845717841530e-01  5.7127906264837647e-01 4.9736954553121554e-01 5.6038847268834924e-01  5.7151986793094611e-01 4.9635520828021007e-01 5.6177606413373304e-01  5.7175475436047063e-01 4.9533719062550208e-01 5.6314953820659697e-01  5.7199228660845836e-01 4.9427875224267326e-01 5.6455876733790444e-01  5.7253390354487732e-01 4.9176730141932046e-01 5.6784072039541977e-01  5.7271446905721179e-01 4.9089853092261510e-01 5.6895684106676170e-01  5.7286004156412029e-01 4.9018354680039933e-01 5.6986682229616981e-01  5.7298213259949760e-01 4.8957253700585607e-01 5.7063802933140118e-01  5.7308619943694039e-01 4.8904273111861096e-01 5.7130182038922217e-01  5.7317545463883424e-01 4.8858118913167803e-01 5.7187630426553659e-01  5.7325182307247824e-01 4.8818064143289941e-01 5.7237196016997149e-01  5.7331662901722780e-01 4.8783640055214311e-01 5.7279574952853185e-01  5.7337104900708247e-01 4.8754413055827167e-01 5.7315396927793227e-01  5.7341576098878000e-01 4.8730174821909594e-01 5.7344993786377141e-01  5.7345147827354714e-01 4.8710664700601419e-01 5.7368745150073408e-01  5.7347853026128670e-01 4.8695802761974177e-01 5.7386796403066387e-01  5.7349730576233748e-01 4.8685448695355038e-01 5.7399353192046010e-01  5.7350828568452794e-01 4.8679380129334898e-01 5.7406706065404789e-01  5.7351320734565503e-01 4.8676523681102474e-01 5.7410108878058574e-01  5.7351892016093153e-01 4.8672903746562451e-01 5.7414297838176742e-01  5.7352929472221637e-01 4.8666373710337735e-01 5.7421869859452668e-01  5.7354445875973314e-01 4.8656850871773982e-01 5.7432918934675059e-01  5.7356566459075875e-01 4.8643592696462290e-01 5.7448321364235988e-01  5.7361749538511531e-01 4.8611283881308226e-01 5.7485881895947721e-01  5.7361396892047789e-01 4.8614234075634372e-01 5.7482736095863129e-01  5.7361677343838824e-01 4.8613054541571826e-01 5.7484320485137608e-01  5.7361970970412202e-01 4.8611621901028285e-01 5.7486134487071106e-01  5.7362170016893532e-01 4.8610625118170725e-01 5.7487384202834457e-01  5.7362150830260206e-01 4.8610721510004362e-01 5.7487263502920194e-01  5.7361874773527222e-01 4.8612114400683853e-01 5.7485521992683264e-01  5.7361345266820551e-01 4.8614866792477024e-01 5.7482117345582917e-01  5.7367991084944514e-01 4.8570029006990445e-01 5.7532930357932077e-01  5.7372057609324589e-01 4.8543562442226146e-01 5.7563247078760238e-01  5.7376249371281085e-01 4.8516178380769170e-01 5.7594565943316800e-01  5.7380599229339979e-01 4.8487586476173639e-01 5.7627190439570342e-01  5.7385118922106848e-01 4.8457658965038292e-01 5.7661246511178454e-01  5.7389809963973193e-01 4.8426348306822514e-01 5.7696773047410255e-01  5.7394706721565780e-01 4.8393389933696163e-01 5.7734055163121378e-01  5.7399894426574638e-01 4.8358176384422885e-01 5.7773764592985122e-01  5.7405579703856702e-01 4.8319249665441683e-01 5.7817520932403355e-01  5.7419623786045426e-01 4.8221826060839074e-01 5.7926502312829065e-01  5.7424898887737041e-01 4.8184735176898214e-01 5.7967789375406875e-01  5.7429476980589478e-01 4.8152260809528857e-01 5.8003824280841765e-01  5.7433554388725216e-01 4.8123084638279284e-01 5.8036100676612457e-01  5.7437249427678683e-01 4.8096423706001296e-01 5.8065510462173298e-01  5.7440607156062218e-01 4.8071999395684473e-01 5.8092379511915793e-01  5.7443662409728002e-01 4.8049601833007471e-01 5.8116955394769565e-01  5.7446436111087240e-01 4.8029116679099754e-01 5.8139378133102326e-01  5.7448940567395568e-01 4.8010489271934670e-01 5.8159720811459958e-01  5.7451171997175576e-01 4.7993781017532083e-01 5.8177928376561239e-01  5.7453119887716164e-01 4.7979103768891906e-01 5.8193890777061075e-01  5.7454743512552597e-01 4.7966797768696834e-01 5.8207249737324873e-01  5.7456905351192800e-01 4.7950259849698718e-01 5.8225151905872941e-01  5.7458348940710346e-01 4.7939113308229464e-01 5.8237183810657800e-01  5.7460008818628572e-01 4.7926234450071276e-01 5.8251064440682121e-01  5.7461937576239286e-01 4.7911204916434974e-01 5.8267240417268296e-01  5.7465959696933577e-01 4.7879793899074014e-01 5.8301018322984044e-01  5.7466339848578929e-01 4.7876844589213396e-01 5.8304195073275211e-01  5.7466469915100848e-01 4.7875842353033399e-01 5.8305276504425563e-01  5.7466472509684385e-01 4.7875822377006427e-01 5.8305298062156208e-01  5.7466404494569479e-01 4.7876339683960889e-01 5.8304737887482116e-01  5.7466389712104360e-01 4.7876429246224594e-01 5.8304633931153227e-01  5.7466585274180582e-01 4.7874859517901552e-01 5.8306308729804179e-01  5.7467679161610252e-01 4.7866190548464338e-01 5.8315589531346523e-01  5.7468152484936197e-01 4.7862453981024949e-01 5.8319593722515561e-01  5.7468481838800900e-01 4.7859864045210398e-01 5.8322372012581891e-01  5.7468678705545650e-01 4.7858320660783227e-01 5.8324028985961052e-01  5.7468742263686812e-01 4.7857822596967736e-01 5.8324563762280413e-01  5.7468698238029281e-01 4.7858165442591949e-01 5.8324195006121637e-01  5.7468573418638969e-01 4.7859136832311305e-01 5.8323150003218160e-01  5.7468398363481543e-01 4.7860486171968608e-01 5.8321694475538399e-01  5.7468995593495176e-01 4.7855535981885544e-01 5.8326928876237827e-01  5.7469677070138003e-01 4.7850038468340056e-01 5.8332784358789636e-01  5.7470275655026481e-01 4.7845207149233177e-01 5.8337929197648586e-01  5.7470776048094796e-01 4.7841161996268133e-01 5.8342234760170519e-01  5.7471153788180385e-01 4.7838102817738376e-01 5.8345489118866600e-01  5.7471514792326084e-01 4.7835161627675943e-01 5.8348612730342464e-01  5.7471767765850479e-01 4.7833082940939214e-01 5.8350815166288739e-01  5.7472077312