<?xml version="1.0"?>
<VTKFile type="UnstructuredGrid"  version="0.1"  >
<UnstructuredGrid>
<Piece  NumberOfPoints="7288" NumberOfCells="14083">
<Points>
<DataArray  type="Float64"  NumberOfComponents="3"  format="ascii">239.8 188 0  250.2 180 0  258.2 172.4 0  257 169.4 0  259.9 157.4 0  258.7 150.3 0  261 143.5 0  251.7 144.4 0  250 138.7 0  247 138.1 0  245.2 130.8 0  247.3 126.4 0  242.7 118.6 0  231.2 107.7 0  226 102.4 0  226.5 93.90000000000001 0  224.5 91.19999999999999 0  224.5 84.09999999999999 0  234.5 73.80000000000001 0  228.4 68.90000000000001 0  230 70 0  233.4 68 0  222.7 61.5 0  220.6 45.5 0  223.4 49.40000000000001 0  224 47 0  221.8 43.09999999999999 0  221 38.40000000000001 0  219.5 38.5 0  219.4 41.69999999999999 0  217.1 36.90000000000001 0  209.7 36 0  209.5 31.69999999999999 0  205.1 29.90000000000001 0  201.5 30.40000000000001 0  199.2 38.69999999999999 0  201.8 41.40000000000001 0  194.8 53.80000000000001 0  196.1 57.69999999999999 0  193 59 0  191.4 66.09999999999999 0  193.5 66.5 0  194.1 64.40000000000001 0  195.6 64.69999999999999 0  195.4 72.40000000000001 0  199.5 77.30000000000001 0  197.7 86.90000000000001 0  200.6 87.5 0  201.5 91 0  198 94.80000000000001 0  198.6 100 0  197.3 105.4 0  198 109.5 0  197 112.7 0  198.3 116.1 0  201.3 122 0  207.2 121 0  208.1 126.7 0  205.6 127.9 0  209.1 134.9 0  210.9 144.4 0  210.1 147.9 0  213 148.4 0  215.4 149.3 0  215.1 152.8 0  219.9 159.7 0  220.3 163.2 0  218.7 164.9 0  219.9 166.7 0  221.9 169.7 0  220 170.3 0  224.9 174.7 0  229.8 177.4 0  229.7 181 0  228 172.9 0  239 178 0  240.4 180 0  239 181.5 0  241.2 185.9 0  242.95 187.99 0  240.5875 187.9975 0  241.375 187.995 0  242.1625 187.9925 0  243.6090909090879 187.2636363636397 0  244.2681818181765 186.5372727272785 0  244.9272727272692 185.810909090913 0  245.5863636363531 185.0845454545571 0  246.245454545445 184.3581818181923 0  246.9045454545351 183.6318181818295 0  247.5636363636303 182.9054545454612 0  248.2227272727197 182.1790909090992 0  248.8818181818179 181.4527272727275 0  249.5409090909066 180.7263636363664 0  250.8666666666961 179.3666666666387 0  251.5333333334033 178.7333333332668 0  252.2000000000994 178.0999999999055 0  252.8666666668011 177.466666666539 0  253.5333333335083 176.8333333331671 0  254.2000000002044 176.1999999998058 0  254.8666666669005 175.5666666664445 0  255.5333333336077 174.9333333330727 0  256.2000000002685 174.2999999997449 0  256.8666666668457 173.6666666664966 0  257.5333333334283 173.033333333243 0  257.9000000000077 171.6500000000191 0  257.6000000000015 170.9000000000038 0  257.2999999999954 170.1499999999885 0  257.2230769230778 168.4769230769195 0  257.4461538461543 167.5538461538442 0  257.6692307692309 166.6307692307688 0  257.8923076923074 165.7076923076935 0  258.115384615384 164.7846153846181 0  258.3384615384605 163.8615384615427 0  258.5615384615395 162.9384615384572 0  258.784615384616 162.0153846153819 0  259.0076923076926 161.0923076923065 0  259.2307692307691 160.1692307692311 0  259.4538461538457 159.2461538461558 0  259.6769230769222 158.3230769230804 0  259.750000000001 156.512500000006 0  259.6000000000014 155.6250000000082 0  259.4500000000029 154.7375000000176 0  259.3000000000018 153.8500000000108 0  259.1500000000007 152.962500000004 0  259.0000000000004 152.0750000000026 0  258.849999999999 151.187499999994 0  258.9875000000052 149.4499999999846 0  259.275000000002 148.5999999999941 0  259.5624999999954 147.7500000000135 0  259.849999999995 146.900000000015 0  260.1374999999945 146.0500000000164 0  260.4249999999913 145.2000000000259 0  260.7124999999948 144.3500000000154 0  260.0700000000398 143.5899999999961 0  259.1400000000573 143.6799999999944 0  258.2100000000351 143.7699999999966 0  257.2800000000262 143.8599999999975 0  256.350000000011 143.9499999999989 0  255.4199999999881 144.0400000000011 0  254.4899999999726 144.1300000000026 0  253.5599999999944 144.2200000000005 0  252.6300000000009 144.3099999999999 0  251.4166666666658 143.4499999999971 0  251.1333333333388 142.5000000000182 0  250.8500000000015 141.5500000000051 0  250.5666666666612 140.5999999999818 0  250.2833333333342 139.6500000000029 0  249.2500000000005 138.5500000000001 0  248.5000000000011 138.4000000000002 0  247.7499999999995 138.2499999999999 0  246.7750000000005 137.1875000000023 0  246.5500000000021 136.2750000000085 0  246.3250000000036 135.3625000000147 0  246.1000000000042 134.450000000017 0  245.8750000000022 133.5375000000088 0  245.650000000003 132.6250000000124 0  245.4250000000046 131.7125000000187 0  245.619999999996 129.9200000000084 0  246.0399999999992 129.0400000000017 0  246.4599999999987 128.1600000000028 0  246.8800000000001 127.2799999999997 0  246.8399999999988 125.6199999999979 0  246.3799999999984 124.8399999999973 0  245.9199999999991 124.0599999999985 0  245.4600000000036 123.2800000000062 0  245.0000000000049 122.5000000000082 0  244.5400000000036 121.7200000000062 0  244.0800000000033 120.9400000000056 0  243.6200000000016 120.1600000000027 0  243.1600000000012 119.3800000000021 0  241.9812499999996 117.9187499999997 0  241.2625000000007 117.2375000000007 0  240.5437500000017 116.5562500000017 0  239.8250000000041 115.875000000004 0  239.1062500000066 115.1937500000063 0  238.3875000000076 114.5125000000072 0  237.6687500000087 113.8312500000082 0  236.9500000000083 113.1500000000079 0  236.231250000008 112.4687500000076 0  235.512500000009 111.7875000000085 0  234.7937500000045 111.1062500000043 0  234.0750000000042 110.4250000000039 0  233.3562500000066 109.7437500000062 0  232.6375000000021 109.062500000002 0  231.9187500000031 108.381250000003 0  230.5500000000004 107.0375000000004 0  229.9000000000021 106.3750000000021 0  229.2500000000038 105.7125000000039 0  228.6000000000041 105.0500000000042 0  227.9500000000018 104.3875000000018 0  227.2999999999952 103.7249999999951 0  226.6500000000024 103.0625000000024 0  226.0555555555555 101.4555555555556 0  226.1111111111111 100.5111111111111 0  226.1666666666667 99.56666666666668 0  226.2222222222222 98.62222222222223 0  226.2777777777778 97.67777777777778 0  226.3333333333333 96.73333333333335 0  226.3888888888889 95.78888888888889 0  226.4444444444445 94.84444444444446 0  226 93.22499999999999 0  225.5000000000026 92.55000000000358 0  225.0000000000026 91.87500000000358 0  224.5 90.31250000000068 0  224.5 89.4250000000097 0  224.5 88.53750000001317 0  224.5 87.65000000001388 0  224.5 86.76250000001457 0  224.5 85.87500000001248 0  224.5 84.9874999999993 0  225.1666666666659 83.41333333333409 0  225.8333333333319 82.72666666666818 0  226.4999999999978 82.04000000000228 0  227.1666666666649 81.35333333333514 0  227.8333333333301 80.66666666667 0  228.4999999999942 79.980000000006 0  229.1666666666601 79.2933333333401 0  229.8333333333316 78.60666666666847 0  230.4999999999975 77.92000000000257 0  231.1666666666644 77.23333333333572 0  231.8333333333295 76.54666666667057 0  232.4999999999972 75.86000000000287 0  233.1666666666681 75.17333333333181 0  233.8333333333368 74.48666666666306 0  233.7499999999995 73.16666666666629 0  233.0000000000018 72.53333333333488 0  232.2500000000014 71.90000000000116 0  231.5000000000009 71.26666666666743 0  230.7500000000005 70.63333333333372 0  229.233333333333 68.75000000000006 0  230.0666666666665 68.60000000000004 0  230.8999999999995 68.45000000000009 0  231.7333333333325 68.30000000000015 0  232.566666666667 68.14999999999995 0  232.5499999999897 68.50000000000607 0  231.7 69 0  230.8500000000103 69.49999999999393 0  227.8300000000008 68.16000000000106 0  227.2600000000064 67.42000000000837 0  226.6900000000077 66.68000000001001 0  226.1200000000024 65.94000000000314 0  225.5500000000108 65.20000000001409 0  224.9800000000098 64.46000000001268 0  224.4100000000007 63.72000000000098 0  223.8399999999971 62.97999999999621 0  223.2699999999993 62.23999999999915 0  222.753846153846 60.56923076923239 0  222.8076923076921 59.63846153846478 0  222.8615384615381 58.70769230769827 0  222.9153846153842 57.77692307693071 0  222.9692307692302 56.84615384616315 0  223.0230769230761 55.91538461539836 0  223.0769230769224 54.98461538462665 0  223.1307692307688 54.05384615385345 0  223.184615384615 53.12307692308312 0  223.2384615384611 52.19230769231556 0  223.2923076923071 51.26153846154906 0  223.3461538461533 50.33076923077847 0  222.8400000000024 48.62000000000327 0  222.2800000000047 47.84000000000661 0  221.7200000000005 47.06000000000071 0  221.1600000000003 46.28000000000039 0  221.4500000000116 45.87500000000512 0  222.3 46.25 0  223.1499999999884 46.62499999999488 0  223.5600000000055 46.22000000000981 0  223.1199999999987 45.43999999999767 0  222.6800000000061 44.66000000001075 0  222.2399999999969 43.8799999999944 0  221.6400000000004 42.16000000000253 0  221.4800000000009 41.22000000000548 0  221.3200000000014 40.28000000000801 0  221.1600000000009 39.34000000000556 0  220.25 38.45 0  219.4749999999999 39.30000000000165 0  219.45 40.09999999999999 0  219.425 40.90000000000112 0  219.0166666666641 40.89999999999463 0  218.6333333333375 40.10000000000875 0  218.2500000000016 39.30000000000339 0  217.8666666666635 38.49999999999351 0  217.483333333337 37.70000000000762 0  216.1750000000165 36.78750000000201 0  215.2500000000275 36.67500000000335 0  214.3250000000385 36.56250000000469 0  213.4000000000277 36.45000000000337 0  212.4750000000059 36.33750000000072 0  211.5499999999838 36.22499999999803 0  210.6249999999835 36.11249999999799 0  209.6600000000001 35.14000000000318 0  209.6200000000001 34.28000000000268 0  209.5800000000001 33.42000000000284 0  209.5399999999998 32.55999999999681 0  208.6200000000117 31.34000000000476 0  207.7400000000138 30.98000000000564 0  206.8600000000162 30.62000000000662 0  205.9800000000174 30.26000000000711 0  204.2000000000054 30.02499999999925 0  203.2999999999946 30.15000000000076 0  202.3999999999945 30.27500000000076 0  201.2444444444438 31.32222222222468 0  200.9888888888895 32.24444444
[...]
<PointData  Vectors="f_12"> 
<DataArray  type="Float64"  Name="f_12"  NumberOfComponents="3" format="ascii">4.8531846487429420e-01 2.5204120107794881e-01 3.7557568380383805e-01  4.8532155709465635e-01 2.5207238829803807e-01 3.7557600678403735e-01  4.8532879784383537e-01 2.5214937213962302e-01 3.7557420467503472e-01  4.8533516999846110e-01 2.5222063664584449e-01 3.7557031951416447e-01  4.8541586565578432e-01 2.5316916840076253e-01 3.7548960432435413e-01  4.8554058082477297e-01 2.5468490292330159e-01 3.7532565509166127e-01  4.8557181338248262e-01 2.5506286548296098e-01 3.7528618277975112e-01  4.8620611628194027e-01 2.6230266340631636e-01 3.7463107747591234e-01  4.8760015827475328e-01 2.7675538778227371e-01 3.7386091703047181e-01  4.8895215748035897e-01 2.8878513808448891e-01 3.7408084617858778e-01  4.9768361011869583e-01 3.5431124927330010e-01 3.7987015651755041e-01  5.0251165256561747e-01 3.8489228224859340e-01 3.8466648526621910e-01  5.1369901817446162e-01 4.3703260059971943e-01 4.0301159653209512e-01  5.4635670230747280e-01 5.1123397179822827e-01 4.7795211574164259e-01  5.5886747773326639e-01 5.1074725807408095e-01 5.1714952809814130e-01  5.6441287057466794e-01 5.0357088122584326e-01 5.3828451269992850e-01  5.6536939639540251e-01 5.0093520672500025e-01 5.4291283736590457e-01  5.6757709598631023e-01 4.9451938768860670e-01 5.5372066560313593e-01  5.6909784928221196e-01 4.9089830364852366e-01 5.6041294970452116e-01  5.6915577278201757e-01 4.9078714491957470e-01 5.6064682382084585e-01  5.6914812064340037e-01 4.9077968126542071e-01 5.6063328358720443e-01  5.6918598820660304e-01 4.9069774040523639e-01 5.6079181081429053e-01  5.6887157197021776e-01 4.9319269617854022e-01 5.5800427694624433e-01  5.6571733711922811e-01 5.0538278367005640e-01 5.4016423887426979e-01  5.6681058106199167e-01 5.0200200813647455e-01 5.4570446654597227e-01  5.6547178353789040e-01 5.0621126015886930e-01 5.3885939508533054e-01  5.6536577170310987e-01 5.0644043602151700e-01 5.3839935050265619e-01  5.6510578440492931e-01 5.0723781736230278e-01 5.3707809240517679e-01  5.6510595157244703e-01 5.0723629479270094e-01 5.3707976625364973e-01  5.6515862662647398e-01 5.0693303519084776e-01 5.3746278714993179e-01  5.6448728662829073e-01 5.0835422908030004e-01 5.3456055806369729e-01  5.6342418921807391e-01 5.1015161107894402e-01 5.3029799478697548e-01  5.6260500296259253e-01 5.1169154103555570e-01 5.2686497309912250e-01  5.6240424701522407e-01 5.1204516098108677e-01 5.2603895387963617e-01  5.6239444835912078e-01 5.1204613300034041e-01 5.2601184765663034e-01  5.6328695802673390e-01 5.1015240287788355e-01 5.2993517369572118e-01  5.6444703985884637e-01 5.0741821270809351e-01 5.3521052590138041e-01  5.6936751147862841e-01 4.9217509996602543e-01 5.6004994164961286e-01  5.7027835399731897e-01 4.8794615865650875e-01 5.6568253926847167e-01  5.7081549955661370e-01 4.8533687588062679e-01 5.6908207654008847e-01  5.7137058641877803e-01 4.8060862843294677e-01 5.7421883355200065e-01  5.7131559160447754e-01 4.8091370391736299e-01 5.7384269129378085e-01  5.7105817822976179e-01 4.8354795801676370e-01 5.7110561840019203e-01  5.7110598771386678e-01 4.8284842196122957e-01 5.7178429906164174e-01  5.7091828623749652e-01 4.8137558434993982e-01 5.7252579602965126e-01  5.6932172166279571e-01 4.8515598591271564e-01 5.6561088567900331e-01  5.6729946481652005e-01 4.9019305646271721e-01 5.5650908260915033e-01  5.6709836652483980e-01 4.9098006115107351e-01 5.5536916675305370e-01  5.6664493966350660e-01 4.9257789853367201e-01 5.5295087177003011e-01  5.6677099247221896e-01 4.9205952916936530e-01 5.5372670033663807e-01  5.6724487206664620e-01 4.9076872119749143e-01 5.5601787778699552e-01  5.6786614750850528e-01 4.8865539734510194e-01 5.5934593508464281e-01  5.6780563745646995e-01 4.8789884676344364e-01 5.5982851829074076e-01  5.6754904747418566e-01 4.8752065342836476e-01 5.5949529098003481e-01  5.6662251436457345e-01 4.8810741751107145e-01 5.5664305911060741e-01  5.6375384645263038e-01 4.8971467704875499e-01 5.4775706170300287e-01  5.5208708774349091e-01 4.8960611939587545e-01 5.1292731663923041e-01  5.2489011238686878e-01 4.5587094418182933e-01 4.3839428229459204e-01  5.1993231154487740e-01 4.4518927671500924e-01 4.2528239993720113e-01  5.0595410242584460e-01 3.9142374605501939e-01 3.9731396300015931e-01  4.9128774853950080e-01 3.0734950014342211e-01 3.7565993769633432e-01  4.9000334079813507e-01 2.9794374104460902e-01 3.7445240513331779e-01  4.8961206397775175e-01 2.9450933346309777e-01 3.7438920195516145e-01  4.8839745440103755e-01 2.8361693305154828e-01 3.7425500445338100e-01  4.8709945232146107e-01 2.7146272523581494e-01 3.7429506324898315e-01  4.8586867648556514e-01 2.5838278270822057e-01 3.7505006571698046e-01  4.8555989309786507e-01 2.5482091584593597e-01 3.7536159710611394e-01  4.8549169522786711e-01 2.5402171455231209e-01 3.7543471832798175e-01  4.8546120067065501e-01 2.5366330573396517e-01 3.7546708585050326e-01  4.8541606162865247e-01 2.5313392233085868e-01 3.7551343639554491e-01  4.8542259260649584e-01 2.5320906159538131e-01 3.7550787478918485e-01  4.8537275383062206e-01 2.5263201717815204e-01 3.7555279110377715e-01  4.8533434053912944e-01 2.5220642094810314e-01 3.7557398825497423e-01  4.8532994513342703e-01 2.5215802271660626e-01 3.7557618929193237e-01  4.8536375444568947e-01 2.5253417824742352e-01 3.7555653513039750e-01  4.8532715103908386e-01 2.5213122344930183e-01 3.7557501587458203e-01  4.8532190532174624e-01 2.5207636512128556e-01 3.7557574039012276e-01  4.8532022536659131e-01 2.5205895525277217e-01 3.7557586787805169e-01  4.8531872457077968e-01 2.5204377545057211e-01 3.7557573976449526e-01  4.8531855816202901e-01 2.5204211663779780e-01 3.7557570983472477e-01  4.8531847717641780e-01 2.5204132219279579e-01 3.7557568699345562e-01  4.8531850324376463e-01 2.5204157829666429e-01 3.7557569409348385e-01  4.8531853239275419e-01 2.5204186399814393e-01 3.7557570247017485e-01  4.8531862626498390e-01 2.5204278732881658e-01 3.7557572735666983e-01  4.8531875077152031e-01 2.5204401591840164e-01 3.7557575783101882e-01  4.8531891638546720e-01 2.5204565426848669e-01 3.7557579571484162e-01  4.8531911818187734e-01 2.5204765723337158e-01 3.7557583758298624e-01  4.8531935521589115e-01 2.5205001921103637e-01 3.7557588081035909e-01  4.8531962451846122e-01 2.5205271428098946e-01 3.7557592249828486e-01  4.8531993187933453e-01 2.5205580626516283e-01 3.7557595975084179e-01  4.8532027516563880e-01 2.5205927737596512e-01 3.7557598994623453e-01  4.8532065346538245e-01 2.5206312255978092e-01 3.7557601031559856e-01  4.8532107891461357e-01 2.5206747267973328e-01 3.7557601665402235e-01  4.8532203466404017e-01 2.5207731891608987e-01 3.7557598319708430e-01  4.8532252987804575e-01 2.5208245416720182e-01 3.7557594423157376e-01  4.8532306402539099e-01 2.5208802256588581e-01 3.7557588317060514e-01  4.8532363901359804e-01 2.5209404715932576e-01 3.7557579773609023e-01  4.8532425348347591e-01 2.5210051777828479e-01 3.7557568547464454e-01  4.8532490341932294e-01 2.5210739478464295e-01 3.7557554538671006e-01  4.8532559671179826e-01 2.5211477175386454e-01 3.7557536918925194e-01  4.8532632270279036e-01 2.5212253968241127e-01 3.7557515669904196e-01  4.8532706184382179e-01 2.5213049299418150e-01 3.7557491126571529e-01  4.8532778413418315e-01 2.5213831042566104e-01 3.7557464179975258e-01  4.8532841966402884e-01 2.5214522972549197e-01 3.7557437800018556e-01  4.8532929676494901e-01 2.5215491233727422e-01 3.7557392675184387e-01  4.8533044112166757e-01 2.5216765831828503e-01 3.7557326377948663e-01  4.8533225324524404e-01 2.5218791184622624e-01 3.7557216753527223e-01  4.8533919465278952e-01 2.5226599841072050e-01 3.7556763110829988e-01  4.8534313141070690e-01 2.5231064624220051e-01 3.7556481585647145e-01  4.8534737000465861e-01 2.5235903899706552e-01 3.7556156834046595e-01  4.8535202708510905e-01 2.5241256585331651e-01 3.7555775947001224e-01  4.8535716390910050e-01 2.5247199292131062e-01 3.7555329567416978e-01  4.8536282077904491e-01 2.5253784739133922e-01 3.7554809851040322e-01  4.8536902314633440e-01 2.5261048381356632e-01 3.7554210221570744e-01  4.8537578419604782e-01 2.5269010700522199e-01 3.7553525618273953e-01  4.8538309779413047e-01 2.5277669592086177e-01 3.7552752709474269e-01  4.8539099984712802e-01 2.5287073227304174e-01 3.7551883204420461e-01  4.8539933609513303e-01 2.5297038256581089e-01 3.7550933371909562e-01  4.8540793984783426e-01 2.5307366485475702e-01 3.7549920712292617e-01  4.8542468241705805e-01 2.5327586068882801e-01 3.7547856446258443e-01  4.8543619649352504e-01 2.5341552066125772e-01 3.7546386750500793e-01  4.8544972265020098e-01 2.5357986430914403e-01 3.7544633473745259e-01  4.8546501815254334e-01 2.5376592908099738e-01 3.7542625149516268e-01  4.8548187505395085e-01 2.5397110267900108e-01 3.7540391222780417e-01  4.8550002675889004e-01 2.5419201335510616e-01 3.7537972687393384e-01  4.8551942871906550e-01 2.5442797955583246e-01 3.7535382538780077e-01  4.8555622797361397e-01 2.5487480016280173e-01 3.7530498918518740e-01  4.8556663176184350e-01 2.5500080809393649e-01 3.7529141860710463e-01  4.8557235348593569e-01 2.5506997683770044e-01 3.7528415290593298e-01  4.8557512442874512e-01 2.5510332675049158e-01 3.7528085078873574e-01  4.8557543164036315e-01 2.5510686194531063e-01 3.7528080784721451e-01  4.8557426425928013e-01 2.5509259601642154e-01 3.7528266344625150e-01  4.8557263827363512e-01 2.5507285339131891e-01 3.7528502321281892e-01  4.8557359850628246e-01 2.5508438453102195e-01 3.7528376425341015e-01  4.8558040430198685e-01 2.5516623762126245e-01 3.7527466927168152e-01  4.8559385147219453e-01 2.5532737729384924e-01 3.7525704150279698e-01  4.8561540295345029e-01 2.5558432677540327e-01 3.7522949414490742e-01  4.8564734443938951e-01 2.5596254680876634e-01 3.7519002933500811e-01  4.8569231844368882e-01 2.5649062939969514e-01 3.7513672898562134e-01  4.8575434745949281e-01 2.5721162150869709e-01 3.7506684337055241e-01  4.8584059546056535e-01 2.5820240534606226e-01 3.7497525557956912e-01  4.8596846620637862e-01 2.5965137627950857e-01 3.7484854168922160e-01  4.8652043244395937e-01 2.6573682463435283e-01 3.7437514112373899e-01  4.8677252832672097e-01 2.6842909503856099e-01 3.7419729399767360e-01  4.8701748797643796e-01 2.7097820272251139e-01 3.7405589120997979e-01  4.8725195983859348e-01 2.7335491512583593e-01 3.7395117621786761e-01  4.8746085957630031e-01 2.7541918265460663e-01 3.7388443787185843e-01  4.8770216502842445e-01 2.7769425713005358e-01 3.7386465042929051e-01  4.8793249680447598e-01 2.7978491417608792e-01 3.7388651543619877e-01  4.8830450598962893e-01 2.8310513416504779e-01 3.7394449454676576e-01  4.8994209903951053e-01 2.9723872890627928e-01 3.7437261569762365e-01  4.9080694328219038e-01 3.0438075165018019e-01 3.7471644158525436e-01  4.9169312402829285e-01 3.1145191474021178e-01 3.7516187725822003e-01  4.9263894165812949e-01 3.1874246337216450e-01 3.7573394769273533e-01  4.9366678363683686e-01 3.2639492953248778e-01 3.7645371365253250e-01  4.9479777627258414e-01 3.3453756863077538e-01 3.7733846549229455e-01  4.9607494125753865e-01 3.4344005197827909e-01 3.7842312069883383e-01  4.9924644581246375e-01 3.6460281427063751e-01 3.8131912357548325e-01  5.0040155030792977e-01 3.7201305251363570e-01 3.8242653330589149e-01  5.0133908672221006e-01 3.7786555730576160e-01 3.8337013114227642e-01  5.0207215527766380e-01 3.8231249451720262e-01 3.8415557664318190e-01  5.0293870526931073e-01 3.8724033543557529e-01 3.8524727794845326e-01  5.0367101920808521e-01 3.9114050367978237e-01 3.8630218257808102e-01  5.0460146696092445e-01 3.9595507663355362e-01 3.8769520025533205e-01  5.0569069417845725e-01 4.0142799790161354e-01 3.8937684960204055e-01  5.0689480830291900e-01 4.0728705058864595e-01 3.9129243045211715e-01  5.0819469430364617e-01 4.1340507660116871e-01 3.9341551997851421e-01  5.0956699956526119e-01 4.1964000330895779e-01 3.9571471336428576e-01  5.1098132496440385e-01 4.2582692911270492e-01 3.9814813928184739e-01  5.1239530760873186e-01 4.3177289307053557e-01 4.0064549690061735e-01  5.1519934059055195e-01 4.4277523421116932e-01 4.0583100658315929e-01  5.1695344971146084e-01 4.4914804048253731e-01 4.0922201952722104e-01  5.1884456856026961e-01 4.5565274048916754e-01 4.1297397301343364e-01  5.2084745310669411e-01 4.6213940986983570e-01 4.1704572690425912e-01  5.2293168817249303e-01 4.6847347710171811e-01 4.2138291451666771e-01  5.2507433447963248e-01 4.7454617226036838e-01 4.2594846030358874e-01  5.2726026572067508e-01 4.8029080842577876e-01 4.3071665458005615e-01  5.2947082304080595e-01 4.8564262070728392e-01 4.3565430199912480e-01  5.3168550503401935e-01 4.9054519491607945e-01 4.4072360637197611e-01  5.3389414615104769e-01 4.9497649156929480e-01 4.4590504994738972e-01  5.3608228054666063e-01 4.9891775550672884e-01 4.5116876959285390e-01  5.3823417017111719e-01 5.0235401876853447e-01 4.5648185529826063e-01  5.4034805722477619e-01 5.0530222387780566e-01 4.6183829070297977e-01  5.4240032609336752e-01 5.0772916698477133e-01 4.6719310475539017e-01  5.4440190192972959e-01 5.0969845973900629e-01 4.7255988495491469e-01  5.4812020941378636e-01 5.1227828957819188e-01 4.8295561643435048e-01  5.4978731993411323e-01 5.1295081356537520e-01 4.8782224592019852e-01  5.5137700778198628e-01 5.1330291572243070e-01 4.9259503389666132e-01  5.5289534025538789e-01 5.1334852616093729e-01 4.9729102119709701e-01  5.5435246268646965e-01 5.1312310159894992e-01 5.0193048287399977e-01  5.5577279077377428e-01 5.1264463583406727e-01 5.0658218214964590e-01  5.5721059445700460e-01 5.1189630449005941e-01 5.1142406853671107e-01  5.6031969163381645e-01 5.0950767817724263e-01 5.2228649192787402e-01  5.6128687581687664e-01 5.0852222336281516e-01 5.2579609493291002e-01  5.6203679385938721e-01 5.0762950480707214e-01 5.2859364271341158e-01  5.6264723582814802e-01 5.0679576963290496e-01 5.3093870244413366e-01  5.6315566134390949e-01 5.0601092556755023e-01 5.3295225036094585e-01  5.6358101045962350e-01 5.0527733144829856e-01 5.3469013984721026e-01  5.6393465809405952e-01 5.0460308163695133e-01 5.3618085092852619e-01  5.6421953528091873e-01 5.0400870866601954e-01 5.3741889444356172e-01  5.6456359801725375e-01 5.0318808426807959e-01 5.3899052230602151e-01  5.6478084866052214e-01 5.0260777988280170e-01 5.4002902028817290e-01  5.6503895865698295e-01 5.0188676009217181e-01 5.4128538321887620e-01  5.6571985684768245e-01 4.9991283658279584e-01 5.4464511526683057e-01  5.6600545973878780e-01 4.9907105243625843e-01 5.4606015859676682e-01  5.6626631296364016e-01 4.9829748561230419e-01 5.4735324754111925e-01  5.6651568144327513e-01 4.9755761020507094e-01 5.4858696111361727e-01  5.6676030151510071e-01 4.9683843356642765e-01 5.4978931215925142e-01  5.6700610450605493e-01 4.9612136467560208e-01 5.5099047163677894e-01  5.6726273080277334e-01 4.9538853051041537e-01 5.5222926267497308e-01  5.6787819010029894e-01 4.9373040289260539e-01 5.5511118682582350e-01  5.6809313051688248e-01 4.9318904504850919e-01 5.5608419067002701e-01  5.6827034727165582e-01 4.9275611997200702e-01 5.5687412919410617e-01  5.6842162408484087e-01 4.9239613616352196e-01 5.5753964229428066e-01  5.6855230548033653e-01 4.9209217499173824e-01 5.5810811269798699e-01  5.6866547912268084e-01 4.9183416992274387e-01 5.5859563421437863e-01  5.6876296986167907e-01 4.9161597104268684e-01 5.5901190605191919e-01  5.6884607261123077e-01 4.9143312009019818e-01 5.5936389078091919e-01  5.6891603679961977e-01 4.9128144806949570e-01 5.5965816683228276e-01  5.6897361947055392e-01 4.9115830067732363e-01 5.5989884286194047e-01  5.6901966356722111e-01 4.9106092640129878e-01 5.6009029761488360e-01  5.6905460094460292e-01 4.9098776995680748e-01 5.6023491207043075e-01  5.6907892588168851e-01 4.9093723564923281e-01 5.6033523823523712e-01  5.6909319652949830e-01 4.9090774780208740e-01 5.6039395285433791e-01  5.6909827740493335e-01 4.9089631109242854e-01 5.6041565513942004e-01  5.6910114194622274e-01 4.9088728779448770e-01 5.6043009188342574e-01  5.6910677184716096e-01 4.9087119876018209e-01 5.6045709066679483e-01  5.6911518836302433e-01 4.9084916035763149e-01 5.6049579111632142e-01  5.6912749230675475e-01 4.9082075848854639e-01 5.6054920806370079e-01  5.6915769946116679e-01 4.9076681500336705e-01 5.6066741622948169e-01  5.6916469741218101e-01 4.9074684338591107e-01 5.6070039442749242e-01  5.6917322513883606e-01 4.9072687179951174e-01 5.6073724019472759e-01  5.6917981952023888e-01 4.9071178773094004e-01 5.6076546032311514e-01  5.6918400225174837e-01 4.9070226601504097e-01 5.6078332513029527e-01  5.6918360157321901e-01 4.9070317864389851e-01 5.6078161342166932e-01  5.6917793611352130e-01 4.9071603541919212e-01 5.6075744610852196e-01  5.6916816112642710e-01 4.9073784719204361e-01 5.6071602817565458e-01  5.6916329771982133e-01 4.9081561245969357e-01 5.6064292206651090e-01  5.6916945086499549e-01 4.9086128045333427e-01 5.6062157105968857e-01  5.6917206714789637e-01 4.9093468990659722e-01 5.6056903832402738e-01  5.6916932271353260e-01 4.9104332139945850e-01 5.6047482038018059e-01  5.6915920003243747e-01 4.9119589322200180e-01 5.6032691347405505e-01  5.6913973966609399e-01 4.9140014726960074e-01 5.6011422871422956e-01  5.6910812629926277e-01 4.9166834804094367e-01 5.5981988285669804e-01  5.6906033957316837e-01 4.9201904526345724e-01 5.5941889261627931e-01  5.6898921659701707e-01 4.9248658448286242e-01 5.5886567534581977e-01  5.6871880098071048e-01 4.9403967370323532e-01 5.5694131490091348e-01  5.6857435655291788e-01 4.9479040533498542e-01 5.5597586633277529e-01  5.6842400747433575e-01 4.9553094637037254e-01 5.5500305553409479e-01  5.6826619128028388e-01 4.9627151883794940e-01 5.5401063923048222e-01  5.6810139591542752e-01 4.9701212618797719e-01 5.5299974770982063e-01  5.6793061975810144e-01 4.9774919147005220e-01 5.5197568297079569e-01  5.6775553354006492e-01 4.9847679334678124e-01 5.5094735767330683e-01  5.6757820958493244e-01 4.9918777745705323e-01 5.4992573526781685e-01  5.6740123845420853e-01 4.9987361944525882e-01 5.4892426179022646e-01  5.6722821820948532e-01 5.0052257964984892e-01 5.4796158871062395e-01  5.6706392952237150e-01 5.0111961998215193e-01 5.4706213436323392e-01  5.6691630120838743e-01 5.0163984748374235e-01 5.4626636352559277e-01  5.6669715472917825e-01 5.0237204446859274e-01 5.4511596103507853e-01  5.6653440471986538e-01 5.0288815255474850e-01 5.4428268742749364e-01  5.6633458879593390e-01 5.0350695155216052e-01 5.4327032462190750e-01  5.6608690725118760e-01 5.0426100258510087e-01 5.4202401314145043e-01  5.6554050591163296e-01 5.0595934540360943e-01 5.3924114357241526e-01  5.6549156313680859e-01 5.0613195334681094e-01 5.3897490694769490e-01  5.6547613259285956e-01 5.0619267312831384e-01 5.3888575066607436e-01  5.6547582822931697e-01 5.0619389303482198e-01 5.3888397266720334e-01  5.6548260753005153e-01 5.0616081247987477e-01 5.3892838698772305e-01  5.6547974219737029e-01 5.0614966840142328e-01 5.3893005353337808e-01  5.6544448698933802e-01 5.0623107353625130e-01 5.3877286779213107e-01  5.6526710540758396e-01 5.0671928326998494e-01 5.3791755721369894e-01  5.6519304095650769e-01 5.0694190871908396e-01 5.3754485235089056e-01  5.6514379172573126e-01 5.0710326648425896e-01 5.3728606002012047e-01  5.6511549521265436e-01 5.0720265040739509e-01 5.3713187839329257e-01  5.6510642479101214e-01 5.0723500159485801e-01 5.3708204422528427e-01  5.6511221542658729e-01 5.0721170613777755e-01 5.3711601280483934e-01  5.6512851614465343e-01 5.0714562440295152e-01 5.3721202971636783e-01  5.6514848201079881e-01 5.0704827455023005e-01 5.3734294328683374e-01  5.6499574443907719e-01 5.0725648846340787e-01 5.3677720042695165e-01  5.6485451626709382e-01 5.0756239332808117e-01 5.3616151517256572e-01  5.6472768244078686e-01 5.0784047924227282e-01 5.3560531937864087e-01  5.6461855407534578e-01 5.0807737893024230e-01 5.3512828604668161e-01  5.6453371648578821e-01 5.0825832848155195e-01 5.3475979133364848e-01  5.6444681368682736e-01 5.0842693881448087e-01 5.3439559578516893e-01  5.6437998848164139e-01 5.0853994418867210e-01 5.3412879979869476e-01  5.6429477376