<?xml version="1.0"?>
<VTKFile type="UnstructuredGrid"  version="0.1"  >
<UnstructuredGrid>
<Piece  NumberOfPoints="7288" NumberOfCells="14083">
<Points>
<DataArray  type="Float64"  NumberOfComponents="3"  format="ascii">239.8 188 0  250.2 180 0  258.2 172.4 0  257 169.4 0  259.9 157.4 0  258.7 150.3 0  261 143.5 0  251.7 144.4 0  250 138.7 0  247 138.1 0  245.2 130.8 0  247.3 126.4 0  242.7 118.6 0  231.2 107.7 0  226 102.4 0  226.5 93.90000000000001 0  224.5 91.19999999999999 0  224.5 84.09999999999999 0  234.5 73.80000000000001 0  228.4 68.90000000000001 0  230 70 0  233.4 68 0  222.7 61.5 0  220.6 45.5 0  223.4 49.40000000000001 0  224 47 0  221.8 43.09999999999999 0  221 38.40000000000001 0  219.5 38.5 0  219.4 41.69999999999999 0  217.1 36.90000000000001 0  209.7 36 0  209.5 31.69999999999999 0  205.1 29.90000000000001 0  201.5 30.40000000000001 0  199.2 38.69999999999999 0  201.8 41.40000000000001 0  194.8 53.80000000000001 0  196.1 57.69999999999999 0  193 59 0  191.4 66.09999999999999 0  193.5 66.5 0  194.1 64.40000000000001 0  195.6 64.69999999999999 0  195.4 72.40000000000001 0  199.5 77.30000000000001 0  197.7 86.90000000000001 0  200.6 87.5 0  201.5 91 0  198 94.80000000000001 0  198.6 100 0  197.3 105.4 0  198 109.5 0  197 112.7 0  198.3 116.1 0  201.3 122 0  207.2 121 0  208.1 126.7 0  205.6 127.9 0  209.1 134.9 0  210.9 144.4 0  210.1 147.9 0  213 148.4 0  215.4 149.3 0  215.1 152.8 0  219.9 159.7 0  220.3 163.2 0  218.7 164.9 0  219.9 166.7 0  221.9 169.7 0  220 170.3 0  224.9 174.7 0  229.8 177.4 0  229.7 181 0  228 172.9 0  239 178 0  240.4 180 0  239 181.5 0  241.2 185.9 0  242.95 187.99 0  240.5875 187.9975 0  241.375 187.995 0  242.1625 187.9925 0  243.6090909090879 187.2636363636397 0  244.2681818181765 186.5372727272785 0  244.9272727272692 185.810909090913 0  245.5863636363531 185.0845454545571 0  246.245454545445 184.3581818181923 0  246.9045454545351 183.6318181818295 0  247.5636363636303 182.9054545454612 0  248.2227272727197 182.1790909090992 0  248.8818181818179 181.4527272727275 0  249.5409090909066 180.7263636363664 0  250.8666666666961 179.3666666666387 0  251.5333333334033 178.7333333332668 0  252.2000000000994 178.0999999999055 0  252.8666666668011 177.466666666539 0  253.5333333335083 176.8333333331671 0  254.2000000002044 176.1999999998058 0  254.8666666669005 175.5666666664445 0  255.5333333336077 174.9333333330727 0  256.2000000002685 174.2999999997449 0  256.8666666668457 173.6666666664966 0  257.5333333334283 173.033333333243 0  257.9000000000077 171.6500000000191 0  257.6000000000015 170.9000000000038 0  257.2999999999954 170.1499999999885 0  257.2230769230778 168.4769230769195 0  257.4461538461543 167.5538461538442 0  257.6692307692309 166.6307692307688 0  257.8923076923074 165.7076923076935 0  258.115384615384 164.7846153846181 0  258.3384615384605 163.8615384615427 0  258.5615384615395 162.9384615384572 0  258.784615384616 162.0153846153819 0  259.0076923076926 161.0923076923065 0  259.2307692307691 160.1692307692311 0  259.4538461538457 159.2461538461558 0  259.6769230769222 158.3230769230804 0  259.750000000001 156.512500000006 0  259.6000000000014 155.6250000000082 0  259.4500000000029 154.7375000000176 0  259.3000000000018 153.8500000000108 0  259.1500000000007 152.962500000004 0  259.0000000000004 152.0750000000026 0  258.849999999999 151.187499999994 0  258.9875000000052 149.4499999999846 0  259.275000000002 148.5999999999941 0  259.5624999999954 147.7500000000135 0  259.849999999995 146.900000000015 0  260.1374999999945 146.0500000000164 0  260.4249999999913 145.2000000000259 0  260.7124999999948 144.3500000000154 0  260.0700000000398 143.5899999999961 0  259.1400000000573 143.6799999999944 0  258.2100000000351 143.7699999999966 0  257.2800000000262 143.8599999999975 0  256.350000000011 143.9499999999989 0  255.4199999999881 144.0400000000011 0  254.4899999999726 144.1300000000026 0  253.5599999999944 144.2200000000005 0  252.6300000000009 144.3099999999999 0  251.4166666666658 143.4499999999971 0  251.1333333333388 142.5000000000182 0  250.8500000000015 141.5500000000051 0  250.5666666666612 140.5999999999818 0  250.2833333333342 139.6500000000029 0  249.2500000000005 138.5500000000001 0  248.5000000000011 138.4000000000002 0  247.7499999999995 138.2499999999999 0  246.7750000000005 137.1875000000023 0  246.5500000000021 136.2750000000085 0  246.3250000000036 135.3625000000147 0  246.1000000000042 134.450000000017 0  245.8750000000022 133.5375000000088 0  245.650000000003 132.6250000000124 0  245.4250000000046 131.7125000000187 0  245.619999999996 129.9200000000084 0  246.0399999999992 129.0400000000017 0  246.4599999999987 128.1600000000028 0  246.8800000000001 127.2799999999997 0  246.8399999999988 125.6199999999979 0  246.3799999999984 124.8399999999973 0  245.9199999999991 124.0599999999985 0  245.4600000000036 123.2800000000062 0  245.0000000000049 122.5000000000082 0  244.5400000000036 121.7200000000062 0  244.0800000000033 120.9400000000056 0  243.6200000000016 120.1600000000027 0  243.1600000000012 119.3800000000021 0  241.9812499999996 117.9187499999997 0  241.2625000000007 117.2375000000007 0  240.5437500000017 116.5562500000017 0  239.8250000000041 115.875000000004 0  239.1062500000066 115.1937500000063 0  238.3875000000076 114.5125000000072 0  237.6687500000087 113.8312500000082 0  236.9500000000083 113.1500000000079 0  236.231250000008 112.4687500000076 0  235.512500000009 111.7875000000085 0  234.7937500000045 111.1062500000043 0  234.0750000000042 110.4250000000039 0  233.3562500000066 109.7437500000062 0  232.6375000000021 109.062500000002 0  231.9187500000031 108.381250000003 0  230.5500000000004 107.0375000000004 0  229.9000000000021 106.3750000000021 0  229.2500000000038 105.7125000000039 0  228.6000000000041 105.0500000000042 0  227.9500000000018 104.3875000000018 0  227.2999999999952 103.7249999999951 0  226.6500000000024 103.0625000000024 0  226.0555555555555 101.4555555555556 0  226.1111111111111 100.5111111111111 0  226.1666666666667 99.56666666666668 0  226.2222222222222 98.62222222222223 0  226.2777777777778 97.67777777777778 0  226.3333333333333 96.73333333333335 0  226.3888888888889 95.78888888888889 0  226.4444444444445 94.84444444444446 0  226 93.22499999999999 0  225.5000000000026 92.55000000000358 0  225.0000000000026 91.87500000000358 0  224.5 90.31250000000068 0  224.5 89.4250000000097 0  224.5 88.53750000001317 0  224.5 87.65000000001388 0  224.5 86.76250000001457 0  224.5 85.87500000001248 0  224.5 84.9874999999993 0  225.1666666666659 83.41333333333409 0  225.8333333333319 82.72666666666818 0  226.4999999999978 82.04000000000228 0  227.1666666666649 81.35333333333514 0  227.8333333333301 80.66666666667 0  228.4999999999942 79.980000000006 0  229.1666666666601 79.2933333333401 0  229.8333333333316 78.60666666666847 0  230.4999999999975 77.92000000000257 0  231.1666666666644 77.23333333333572 0  231.8333333333295 76.54666666667057 0  232.4999999999972 75.86000000000287 0  233.1666666666681 75.17333333333181 0  233.8333333333368 74.48666666666306 0  233.7499999999995 73.16666666666629 0  233.0000000000018 72.53333333333488 0  232.2500000000014 71.90000000000116 0  231.5000000000009 71.26666666666743 0  230.7500000000005 70.63333333333372 0  229.233333333333 68.75000000000006 0  230.0666666666665 68.60000000000004 0  230.8999999999995 68.45000000000009 0  231.7333333333325 68.30000000000015 0  232.566666666667 68.14999999999995 0  232.5499999999897 68.50000000000607 0  231.7 69 0  230.8500000000103 69.49999999999393 0  227.8300000000008 68.16000000000106 0  227.2600000000064 67.42000000000837 0  226.6900000000077 66.68000000001001 0  226.1200000000024 65.94000000000314 0  225.5500000000108 65.20000000001409 0  224.9800000000098 64.46000000001268 0  224.4100000000007 63.72000000000098 0  223.8399999999971 62.97999999999621 0  223.2699999999993 62.23999999999915 0  222.753846153846 60.56923076923239 0  222.8076923076921 59.63846153846478 0  222.8615384615381 58.70769230769827 0  222.9153846153842 57.77692307693071 0  222.9692307692302 56.84615384616315 0  223.0230769230761 55.91538461539836 0  223.0769230769224 54.98461538462665 0  223.1307692307688 54.05384615385345 0  223.184615384615 53.12307692308312 0  223.2384615384611 52.19230769231556 0  223.2923076923071 51.26153846154906 0  223.3461538461533 50.33076923077847 0  222.8400000000024 48.62000000000327 0  222.2800000000047 47.84000000000661 0  221.7200000000005 47.06000000000071 0  221.1600000000003 46.28000000000039 0  221.4500000000116 45.87500000000512 0  222.3 46.25 0  223.1499999999884 46.62499999999488 0  223.5600000000055 46.22000000000981 0  223.1199999999987 45.43999999999767 0  222.6800000000061 44.66000000001075 0  222.2399999999969 43.8799999999944 0  221.6400000000004 42.16000000000253 0  221.4800000000009 41.22000000000548 0  221.3200000000014 40.28000000000801 0  221.1600000000009 39.34000000000556 0  220.25 38.45 0  219.4749999999999 39.30000000000165 0  219.45 40.09999999999999 0  219.425 40.90000000000112 0  219.0166666666641 40.89999999999463 0  218.6333333333375 40.10000000000875 0  218.2500000000016 39.30000000000339 0  217.8666666666635 38.49999999999351 0  217.483333333337 37.70000000000762 0  216.1750000000165 36.78750000000201 0  215.2500000000275 36.67500000000335 0  214.3250000000385 36.56250000000469 0  213.4000000000277 36.45000000000337 0  212.4750000000059 36.33750000000072 0  211.5499999999838 36.22499999999803 0  210.6249999999835 36.11249999999799 0  209.6600000000001 35.14000000000318 0  209.6200000000001 34.28000000000268 0  209.5800000000001 33.42000000000284 0  209.5399999999998 32.55999999999681 0  208.6200000000117 31.34000000000476 0  207.7400000000138 30.98000000000564 0  206.8600000000162 30.62000000000662 0  205.9800000000174 30.26000000000711 0  204.2000000000054 30.02499999999925 0  203.2999999999946 30.15000000000076 0  202.3999999999945 30.27500000000076 0  201.2444444444438 31.32222222222468 0  200.9888888888895 32.24444444
[...]
<PointData  Vectors="f_12"> 
<DataArray  type="Float64"  Name="f_12"  NumberOfComponents="3" format="ascii">5.6945722619683281e-01 3.3226653750517626e-01 6.7197302583191931e-01  5.6872505732307355e-01 3.2756080454420183e-01 6.7295649829094917e-01  5.6783098055924375e-01 3.2204031629242486e-01 6.7396139887271145e-01  5.6739501591082442e-01 3.1949936369096649e-01 6.7434141548220061e-01  5.6433884059026407e-01 3.0274275280779084e-01 6.7599771124819674e-01  5.6222112015270909e-01 2.9230149342700507e-01 6.7611287186417146e-01  5.6156951841311908e-01 2.8909384311747788e-01 6.7607730591598103e-01  5.5806326757746438e-01 2.7467414303803367e-01 6.7404737451092278e-01  5.5294458442440297e-01 2.5506651242851530e-01 6.6915264444991684e-01  5.5021882469044359e-01 2.4581488635371893e-01 6.6534873335258782e-01  5.4039182635541094e-01 2.1609467099594049e-01 6.4710592282322965e-01  5.3719578051697470e-01 2.0765139710540581e-01 6.3967985802464200e-01  5.3254468238759567e-01 1.9708971128002836e-01 6.2737662743620759e-01  5.2062056560876269e-01 1.7620139501224746e-01 5.8934437780732885e-01  5.1360273015555880e-01 1.6766575515904913e-01 5.6280563755100110e-01  5.0807584441051090e-01 1.6283750496681523e-01 5.3982880375630427e-01  5.0660539314015729e-01 1.6200170861378929e-01 5.3331859441846641e-01  5.0309802189307784e-01 1.6066050116796449e-01 5.1719924283262386e-01  5.0097138412896680e-01 1.6035107981251645e-01 5.0697735831250568e-01  5.0073322607625104e-01 1.6037348277096483e-01 5.0579759541412195e-01  5.0081006814327511e-01 1.6036390371306664e-01 5.0617943735133464e-01  5.0076555290376834e-01 1.6036252822490990e-01 5.0596089915906650e-01  4.9978905965490428e-01 1.6052659821038787e-01 5.0106975026487077e-01  4.9875514272252452e-01 1.6081372106688377e-01 4.9579915774858452e-01  4.9893372766176453e-01 1.6075106338583570e-01 4.9671843187422715e-01  4.9871758279074313e-01 1.6082700599280611e-01 4.9560565668400564e-01  4.9870629406170752e-01 1.6083146694245065e-01 4.9554727205086418e-01  4.9867206554551891e-01 1.6084415296665761e-01 4.9537057471000351e-01  4.9867211428642316e-01 1.6084413700660632e-01 4.9537082558283718e-01  4.9868280265098858e-01 1.6084048000691084e-01 4.9542588910534657e-01  4.9861917256486077e-01 1.6086567898558482e-01 4.9509668849162114e-01  4.9854783178517970e-01 1.6089570813143955e-01 4.9472667166205381e-01  4.9849872566862702e-01 1.6091652554806510e-01 4.9447180181759909e-01  4.9848742841803984e-01 1.6092139396901542e-01 4.9441311790635889e-01  4.9848681768287417e-01 1.6092167463429274e-01 4.9440993912735720e-01  4.9853814571062988e-01 1.6090005900406992e-01 4.9467633244157833e-01  4.9861527119097920e-01 1.6086875868193784e-01 4.9507586084578242e-01  4.9908197775675373e-01 1.6069997704508959e-01 4.9747988899615730e-01  4.9928886267525924e-01 1.6063919143850691e-01 4.9853663650545910e-01  4.9940954973055146e-01 1.6060463421671356e-01 4.9915213972295214e-01  4.9991536212388815e-01 1.6049241679305568e-01 5.0171093908740572e-01  4.9990815246319154e-01 1.6049521144496634e-01 5.0167401262146705e-01  4.9958628353268714e-01 1.6056319190141588e-01 5.0004821171482305e-01  4.9969635217309344e-01 1.6054017675467799e-01 5.0060433989618602e-01  5.0026031735654586e-01 1.6045059895665076e-01 5.0343532456581530e-01  5.0140065371942277e-01 1.6041681099186211e-01 5.0905444189644145e-01  5.0328754484104155e-01 1.6062105143092251e-01 5.1813294840600077e-01  5.0380822426244110e-01 1.6078066043484168e-01 5.2056367750118637e-01  5.0575414479612824e-01 1.6148846105399295e-01 5.2951772768655003e-01  5.0754375904130844e-01 1.6231792831238709e-01 5.3755761319127482e-01  5.0912461676342691e-01 1.6332665507417543e-01 5.4442916503173866e-01  5.1108602215162047e-01 1.6479910197270076e-01 5.5273776745559544e-01  5.1254645123381659e-01 1.6608821728050269e-01 5.5874611827879905e-01  5.1352020132426335e-01 1.6701163767267940e-01 5.6268531275730860e-01  5.1439717759976400e-01 1.6793044012483757e-01 5.6616585008079079e-01  5.1591054223145860e-01 1.6966706666873954e-01 5.7205174622773425e-01  5.1925241874030559e-01 1.7430572759943094e-01 5.8437891693541544e-01  5.2686882285348247e-01 1.8632112117953337e-01 6.1032363923957433e-01  5.2819733626959642e-01 1.8861151212856181e-01 6.1454867638596800e-01  5.3312840326826627e-01 1.9865521777164441e-01 6.2889263075572233e-01  5.4168084323565047e-01 2.1923935328488622e-01 6.5006949339694819e-01  5.4291526587858907e-01 2.2254101322648981e-01 6.5272852282728522e-01  5.4373374994389101e-01 2.2496685201221650e-01 6.5434949375953488e-01  5.4645232185003578e-01 2.3323552605454465e-01 6.5939706018266653e-01  5.4983749486885980e-01 2.4398643224643046e-01 6.6503933738610810e-01  5.5674685863046358e-01 2.6929167484035038e-01 6.7309056589666838e-01  5.6003316615968246e-01 2.8275971214509810e-01 6.7529928052078547e-01  5.6092233050881013e-01 2.8654573570908831e-01 6.7571974349300479e-01  5.6144993324512982e-01 2.8889385658738764e-01 6.7588715675577049e-01  5.6240705307928363e-01 2.9328757431086266e-01 6.7608402269769252e-01  5.6217349125247906e-01 2.9215773691254598e-01 6.7607173288347211e-01  5.6377043299088436e-01 2.9988206410346391e-01 6.7609312919114084e-01  5.6634349150877472e-01 3.1347036452741206e-01 6.7513827484288691e-01  5.6663730436993243e-01 3.1505464056264326e-01 6.7497814777737963e-01  5.6449962869909853e-01 3.0370769400608438e-01 6.7588418384830451e-01  5.6770009240979502e-01 3.2141840546876543e-01 6.7399942272574598e-01  5.6867185613502946e-01 3.2732934565582816e-01 6.7296389123111733e-01  5.6900298958387763e-01 3.2938315396489637e-01 6.7257079760017591e-01  5.6937972574743645e-01 3.3176820224322534e-01 6.7207982424354407e-01  5.6942720420411752e-01 3.3207192614245551e-01 6.7201536730911671e-01  5.6945334392780489e-01 3.3224144728534449e-01 6.7197846197781086e-01  5.6944499851922936e-01 3.3218741465579232e-01 6.7199020089965145e-01  5.6943552840347667e-01 3.3212596294127822e-01 6.7200359313827207e-01  5.6940602262314088e-01 3.3193481186803542e-01 6.7204506417786003e-01  5.6936811729519787e-01 3.3168957013260947e-01 6.7209802872268276e-01  5.6931916287392659e-01 3.3137298237527496e-01 6.7216614602027658e-01  5.6926180779144886e-01 3.3100233260161471e-01 6.7224549191173111e-01  5.6919750352096687e-01 3.3058721474769537e-01 6.7233380728335312e-01  5.6912824232846582e-01 3.3014060689931679e-01 6.7242815821671420e-01  5.6905394522075914e-01 3.2966251594516482e-01 6.7252826577016156e-01  5.6897616314402821e-01 3.2916308691736301e-01 6.7263186252176854e-01  5.6889614487222773e-01 3.2865056447579577e-01 6.7273707845986663e-01  5.6881257021627851e-01 3.2811720253492777e-01 6.7284519570937862e-01  5.6864287145761117e-01 3.2704007559444154e-01 6.7305934975573567e-01  5.6856263240039007e-01 3.2653374362138693e-01 6.7315797381012188e-01  5.6848153647684263e-01 3.2602458010490809e-01 6.7325557980641260e-01  5.6839949011638169e-01 3.2551210665937425e-01 6.7335221742352458e-01  5.6831699033925653e-01 3.2499951332150373e-01 6.7344723749617308e-01  5.6823463209679903e-01 3.2449049222436266e-01 6.7353997545277811e-01  5.6815217413084740e-01 3.2398381538641341e-01 6.7363057390629177e-01  5.6807104865322378e-01 3.2348820933148020e-01 6.7371754070856349e-01  5.6799347229171082e-01 3.2301703070445437e-01 6.7379866566488378e-01  5.6792234806445607e-01 3.2258757456324649e-01 6.7387122417448220e-01  5.6786367421386896e-01 3.2223538179305433e-01 6.7392963164193820e-01  5.6779408672802667e-01 3.2182355306027866e-01 6.7399515735701931e-01  5.6771233264803611e-01 3.2134493957833948e-01 6.7406856198775778e-01  5.6758763792905909e-01 3.2061778740456920e-01 6.7417780440162312e-01  5.6714218981366382e-01 3.1803922064487122e-01 6.7454760025266969e-01  5.6691144726670994e-01 3.1671658156323390e-01 6.7472565221946212e-01  5.6668132444171671e-01 3.1540845231693088e-01 6.7489258942961350e-01  5.6644779188110606e-01 3.1409249651026772e-01 6.7505107470556180e-01  5.6621022250625808e-01 3.1276585803712648e-01 6.7520106291911175e-01  5.6596903438049717e-01 3.1143144124905436e-01 6.7534187420123348e-01  5.6572523566800370e-01 3.1009526985339997e-01 6.7547259149719385e-01  5.6548001343459975e-01 3.0876400900758699e-01 6.7559252650446555e-01  5.6523540656176552e-01 3.0744895896460761e-01 6.7570056743439777e-01  5.6499231936388972e-01 3.0615514871937410e-01 6.7579643343309126e-01  5.6475546861195558e-01 3.0490678559918255e-01 6.7587911179300852e-01  5.6453018295119139e-01 3.0373120703119705e-01 6.7594768636266112e-01  5.6414733738814338e-01 3.0176626058981904e-01 6.7603798611075561e-01  5.6391452784120333e-01 3.0059037569336344e-01 6.7607752121390430e-01  5.6365862020555946e-01 2.9930964722607989e-01 6.7611039615698598e-01  5.6338798749062957e-01 2.9796794125022663e-01 6.7613357074371183e-01  5.6310764971776406e-01 2.9659067738095218e-01 6.7614556761803613e-01  5.6282176502109582e-01 2.9519778990734263e-01 6.7614602806928781e-01  5.6253013020992293e-01 2.9378756119747812e-01 6.7613503344125525e-01  5.6197636213114610e-01 2.9111917038196955e-01 6.7609337098721534e-01  5.6180726663938974e-01 2.9030140920831154e-01 6.7607755854780138e-01  5.6169640406600685e-01 2.8975893883404308e-01 6.7606875285838408e-01  5.6162430173819833e-01 2.8940047163188054e-01 6.7606499218326499e-01  5.6158489199444650e-01 2.8919700555543398e-01 6.7606613738303767e-01  5.6156890457417896e-01 2.8910627631376434e-01 6.7607025807979859e-01  5.6156734833479294e-01 2.8908780451901844e-01 6.7607501950574411e-01  5.6155974793246954e-01 2.8905435467829971e-01 6.7607256340368294e-01  5.6151938644101085e-01 2.8888755743623035e-01 6.7605455762469091e-01  5.6143608374203202e-01 2.8853927149646164e-01 6.7601886309912096e-01  5.6130097920523603e-01 2.8797222531787392e-01 6.7596094836275944e-01  5.6110102689647878e-01 2.8713212262769494e-01 6.7587322511588710e-01  5.6082381159996098e-01 2.8596965488378556e-01 6.7574577330889285e-01  5.6045301125768821e-01 2.8442281419478110e-01 6.7556249915664945e-01  5.5995895379590899e-01 2.8237779775144151e-01 6.7529446656134107e-01  5.5926578160451201e-01 2.7953824128339461e-01 6.7487349437353494e-01  5.5662746427214405e-01 2.6896627435712123e-01 6.7292001502000043e-01  5.5559670659930727e-01 2.6495079076508793e-01 6.7200396446151478e-01  5.5470134672687721e-01 2.6153625964337918e-01 6.7112144532301277e-01  5.5393402310171036e-01 2.5866898449480125e-01 6.7030130450044600e-01  5.5331552324054489e-01 2.5640016395755405e-01 6.6959801292392473e-01  5.5270982805553659e-01 2.5424762309551258e-01 6.6885063310418291e-01  5.5220737223228622e-01 2.5251466138267870e-01 6.6818402936376398e-01  5.5144859115228717e-01 2.4993463899307078e-01 6.6713334458446505e-01  5.4853408996941999e-01 2.4028903183616590e-01 6.6275139178266096e-01  5.4723487025064599e-01 2.3613650874490175e-01 6.6060824807633645e-01  5.4605420966022222e-01 2.3245901856565857e-01 6.5854129022795616e-01  5.4493179990340912e-01 2.2905055644372999e-01 6.5647106332535587e-01  5.4384160508185275e-01 2.2582227769165464e-01 6.5436300002088221e-01  5.4276195582229114e-01 2.2270219212020470e-01 6.5218417999724798e-01  5.4165774395253763e-01 2.1958587390245943e-01 6.4986560054835096e-01  5.3925733086804906e-01 2.1302767236119274e-01 6.4455232514991379e-01  5.3847607292827870e-01 2.1095388422428540e-01 6.4274471926423282e-01  5.3788156765756634e-01 2.0940254288650115e-01 6.4133830360795541e-01  5.3744344877558281e-01 2.0827730306089126e-01 6.4028394323688764e-01  5.3697878959628909e-01 2.0711978200644379e-01 6.3914036743543001e-01  5.3662450278760210e-01 2.0626555071212796e-01 6.3825006020544561e-01  5.3619321900239858e-01 2.0524074106830847e-01 6.3715382555460687e-01  5.3570810651119927e-01 2.0410467571146915e-01 6.3590543900346841e-01  5.3519221268121153e-01 2.0291504784829084e-01 6.3456033459609817e-01  5.3465502587360958e-01 2.0169545773310646e-01 6.3314065327267421e-01  5.3410651320296643e-01 2.0046976912995029e-01 6.3167113637445238e-01  5.3355821879762400e-01 1.9926444352771780e-01 6.3018224290928893e-01  5.3302483592522976e-01 1.9811096383456747e-01 6.2871463902987512e-01  5.3200483618866923e-01 1.9596457203801695e-01 6.2585040152090265e-01  5.3138525778514012e-01 1.9469787267056038e-01 6.2407389837765692e-01  5.3072641329678361e-01 1.9337651924057264e-01 6.2215802329420222e-01  5.3003595196213948e-01 1.9201969199486224e-01 6.2011992319834319e-01  5.2932168858636586e-01 1.9064474484063129e-01 6.1798002117046791e-01  5.2858860432496979e-01 1.8926385853201963e-01 6.1575018302677942e-01  5.2783874384971108e-01 1.8788286482373917e-01 6.1343414481186676e-01  5.2707495633185530e-01 1.8650872838630142e-01 6.1103872753255939e-01  5.2630048282491992e-01 1.8514858422230679e-01 6.0857266645575991e-01  5.2551538397110653e-01 1.8380419704727374e-01 6.0603431316606959e-01  5.2472119142512152e-01 1.8247913410861005e-01 6.0342760819237840e-01  5.2391997239199950e-01 1.8117772672767912e-01 6.0075849984850382e-01  5.2310909391215665e-01 1.7989735865819251e-01 5.9801653062779359e-01  5.2229281953917206e-01 1.7864689397809908e-01 5.9521399094789429e-01  5.2146492571208514e-01 1.7741692005894036e-01 5.9232934652462010e-01  5.1982184360331141e-01 1.7508860579292906e-01 5.8648013595042003e-01  5.1902779439751812e-01 1.7401866812898742e-01 5.8359298353029843e-01  5.1822998848377555e-01 1.7297926849153186e-01 5.8065335993287559e-01  5.1742020766076513e-01 1.7196376263864493e-01 5.7762667098855991e-01  5.1659385132469327e-01 1.7096622617876137e-01 5.7449510250567093e-01  5.1573131898716762e-01 1.6996679278001706e-01 5.7117953439462144e-01  5.1478738156995418e-01 1.6892060486299729e-01 5.6749625663288683e-01  5.1245010784344880e-01 1.6650462396749371e-01 5.5817470783875289e-01  5.1160585188339569e-01 1.6569495174457349e-01 5.5473610481230229e-01  5.1089081999459118e-01 1.6504267544451690e-01 5.5178705369309911e-01  5.1025892245590521e-01 1.6449460979266375e-01 5.4915151823878405e-01  5.0969142460095285e-01 1.6402651837575019e-01 5.4676103599132475e-01  5.0918207666644388e-01 1.6362726903227692e-01 5.4459622612406988e-01  5.0873091019232719e-01 1.6329131933082822e-01 5.4266321889027824e-01  5.0834747721102347e-01 1.6302004289480890e-01 5.4100860200874046e-01  5.0785610114949920e-01 1.6270036112952102e-01 5.3886628310982787e-01  5.0752999113205910e-01 1.6250631356849388e-01 5.3743015892151935e-01  5.0713089234604236e-01 1.6228134245442941e-01 5.3566186741316557e-01  5.0603454189648733e-01 1.6171722023154914e-01 5.3075550373235536e-01  5.0556508659884658e-01 1.6149986417676038e-01 5.2863232849916053e-01  5.0513726010579163e-01 1.6131707369965809e-01 5.2668331389836676e-01  5.0473262226611626e-01 1.6115832323312204e-01 5.2482707487950742e-01  5.0434234765373032e-01 1.6101895647427511e-01 5.2302443670355336e-01  5.0395829252298407e-01 1.6089491853215018e-01 5.2123863244002211e-01  5.0356641691358828e-01 1.6078130409432115e-01 5.1940478000127122e-01  5.0266073745085982e-01 1.6056139111040951e-01 5.1512800974756812e-01  5.0235492485891886e-01 1.6050077092049547e-01 5.1367154631804823e-01  5.0210666812673677e-01 1.6045800980047323e-01 5.1248338939276783e-01  5.0189716023068753e-01 1.6042694068403049e-01 5.1147634418287424e-01  5.0171756465617279e-01 1.6040420626062588e-01 5.1060984458651970e-01  5.0156271794138496e-01 1.6038760776100511e-01 5.0986034420378745e-01  5.0142957570716740e-01 1.6037563608250938e-01 5.0921409981703203e-01  5.0131608032909381e-01 1.6036715105731481e-01 5.0866189203355239e-01  5.0122038922710710e-01 1.6036123543249733e-01 5.0819536691897160e-01  5.0114149340028302e-01 1.6035721764018596e-01 5.0781007056283434e-01  5.0107828576970903e-01 1.6035455746544877e-01 5.0750096548854295e-01  5.0103030707687901e-01 1.6035286274246802e-01 5.0726608387426042e-01  5.0099695928636812e-01 1.6035183840407705e-01 5.0710270487048026e-01  5.0097744114843845e-01 1.6035129381275362e-01 5.0700703470298714e-01  5.0096849782906017e-01 1.6035141911800044e-01 5.0696305159387023e-01  5.0095768186838363e-01 1.6035238375699409e-01 5.0690954934570520e-01  5.0093810508266634e-01 1.6035403105135126e-01 5.0681273007181382e-01  5.0090952635130193e-01 1.6035640450158298e-01 5.0667136757866238e-01  5.0086965148899010e-01 1.6035960724400383e-01 5.0647410805780602e-01  5.0077236120627022e-01 1.6036734027613619e-01 5.0599261314938682e-01  5.0078001086937440e-01 1.6036475203784883e-01 5.0603125342970878e-01  5.0077553150176413e-01 1.6036364422004440e-01 5.0600962201047139e-01  5.0077057127538449e-01 1.6036302942617756e-01 5.0598542852301487e-01  5.0076717437567864e-01 1.6036268649038607e-01 5.0596882703612422e-01  5.0076750218743182e-01 1.6036271844740471e-01 5.0597042977312456e-01  5.0077222809482791e-01 1.6036316774671036e-01 5.0599353509976686e-01  5.0078140811273375e-01 1.6036383490895903e-01 5.0603847143421621e-01  5.0065208351110779e-01 1.6038356717710003e-01 5.0539409262567880e-01  5.0057433257774264e-01 1.6039323837172983e-01 5.0500719920733761e-01  5.0049409473264417e-01 1.6040370106745752e-01 5.0460745418976083e-01  5.0041064954849623e-01 1.6041527935706984e-01 5.0419114112290420e-01  5.0032371714489754e-01 1.6042818573428086e-01 5.0375674953263927e-01  5.0023323187114677e-01 1.6044256879124480e-01 5.0330385111086917e-01  5.0013849874139060e-01 1.6045867998799027e-01 5.0282885158146062e-01  5.0003783870077956e-01 1.6047694591074896e-01 5.0232320149859810e-01  4.9992718730743430e-01 1.6049831292389727e-01 5.0176629541250339e-01  4.9965259200438938e-01 1.6055611945107603e-01 5.0038026745889064e-01  4.9954896601422127e-01 1.6057977098769849e-01 4.9985571047736771e-01  4.9945876643749454e-01 1.6060139749870153e-01 4.9939829384278167e-01  4.9937820440679515e-01 1.6062163580062433e-01 4.9898904066143168e-01  4.9930500534524702e-01 1.6064081603291977e-01 4.9861660002700819e-01  4.9923832086718095e-01 1.6065898086838531e-01 4.9827680336418489e-01  4.9917749841526515e-01 1.6067614263748475e-01 4.9796645500884740e-01  4.9912215575898228e-01 1.6069226457302904e-01 4.9768371402865091e-01  4.9907207872530795e-01 1.6070727926821984e-01 4.9742758208214594e-01  4.9902737163490218e-01 1.6072104036870571e-01 4.9719867616291225e-01  4.9898827352076497e-01 1.6073336376930300e-01 4.9699829923484573e-01  4.9895562992820863e-01 1.6074387579869709e-01 4.9683085945720146e-01  4.9891205908251640e-01 1.6075837645580229e-01 4.9660708271665799e-01  4.9888289552672876e-01 1.6076839941020643e-01 4.9645710675246740e-01  4.9884932081046551e-01 1.6078013016660289e-01 4.9628432070253437e-01  4.9881026252851907e-01 1.6079397608512730e-01 4.9608317531708035e-01  4.9872872153454917e-01 1.6082312404588386e-01 4.9566302149886082e-01  4.9872101190891105e-01 1.6082582961196568e-01 4.9562331071742671e-01  4.9871837442806932e-01 1.6082673727012375e-01 4.9560973143478293e-01  4.9871832180900377e-01 1.6082675534417887e-01 4.9560946050859550e-01  4.9871970020693734e-01 1.6082629922178812e-01 4.9561654994154075e-01  4.9871999645100357e-01 1.6082626428101809e-01 4.9561804522596786e-01  4.9871602129868575e-01 1.6082780639429234e-01 4.9559749945891174e-01  4.9869379444785711e-01 1.6083613380545236e-01 4.9548273972038714e-01  4.9868417141072502e-01 1.6083970890701521e-01 4.9543305995335751e-01  4.9867747160647796e-01 1.6084217641429460e-01 4.9539847674872256e-01  4.9867346498629367e-01 1.6084364225663181e-01 4.9537779743636307e-01  4.9867217122127366e-01 1.6084411540306875e-01 4.9537111973819337e-01  4.9867306778394804e-01 1.6084379279132091e-01 4.9537574532349643e-01  4.9867560952306217e-01 1.6084288026030621e-01 4.9538885756888290e-01  4.9867917579927040e-01 1.6084163339348262e-01 4.9540724111690965e-01  4.9866707315149678e-01 1.6084672238387598e-01 4.9534451896612891e-01  4.9865323447832849e-01 1.6085216824139087e-01 4.9527294119095316e-01  4.9864107685899067e-01 1.6085696359221965e-01 4.9521004764988080e-01  4.9863091317579861e-01 1.6086099159664741e-01 4.9515745713634834e-01  4.9862324118017665e-01 1.6086404789629616e-01 4.9511775065220942e-01  4.9861591416550594e-01 1.6086701281047383e-01 4.9507980886365349e-01  4.9861078565701378e-01 1.6086913402982228e-01 4.9505323178916333e-01  4.9860451251