<?xml version="1.0"?>
<VTKFile type="UnstructuredGrid"  version="0.1"  >
<UnstructuredGrid>
<Piece  NumberOfPoints="7288" NumberOfCells="14083">
<Points>
<DataArray  type="Float64"  NumberOfComponents="3"  format="ascii">239.8 188 0  250.2 180 0  258.2 172.4 0  257 169.4 0  259.9 157.4 0  258.7 150.3 0  261 143.5 0  251.7 144.4 0  250 138.7 0  247 138.1 0  245.2 130.8 0  247.3 126.4 0  242.7 118.6 0  231.2 107.7 0  226 102.4 0  226.5 93.90000000000001 0  224.5 91.19999999999999 0  224.5 84.09999999999999 0  234.5 73.80000000000001 0  228.4 68.90000000000001 0  230 70 0  233.4 68 0  222.7 61.5 0  220.6 45.5 0  223.4 49.40000000000001 0  224 47 0  221.8 43.09999999999999 0  221 38.40000000000001 0  219.5 38.5 0  219.4 41.69999999999999 0  217.1 36.90000000000001 0  209.7 36 0  209.5 31.69999999999999 0  205.1 29.90000000000001 0  201.5 30.40000000000001 0  199.2 38.69999999999999 0  201.8 41.40000000000001 0  194.8 53.80000000000001 0  196.1 57.69999999999999 0  193 59 0  191.4 66.09999999999999 0  193.5 66.5 0  194.1 64.40000000000001 0  195.6 64.69999999999999 0  195.4 72.40000000000001 0  199.5 77.30000000000001 0  197.7 86.90000000000001 0  200.6 87.5 0  201.5 91 0  198 94.80000000000001 0  198.6 100 0  197.3 105.4 0  198 109.5 0  197 112.7 0  198.3 116.1 0  201.3 122 0  207.2 121 0  208.1 126.7 0  205.6 127.9 0  209.1 134.9 0  210.9 144.4 0  210.1 147.9 0  213 148.4 0  215.4 149.3 0  215.1 152.8 0  219.9 159.7 0  220.3 163.2 0  218.7 164.9 0  219.9 166.7 0  221.9 169.7 0  220 170.3 0  224.9 174.7 0  229.8 177.4 0  229.7 181 0  228 172.9 0  239 178 0  240.4 180 0  239 181.5 0  241.2 185.9 0  242.95 187.99 0  240.5875 187.9975 0  241.375 187.995 0  242.1625 187.9925 0  243.6090909090879 187.2636363636397 0  244.2681818181765 186.5372727272785 0  244.9272727272692 185.810909090913 0  245.5863636363531 185.0845454545571 0  246.245454545445 184.3581818181923 0  246.9045454545351 183.6318181818295 0  247.5636363636303 182.9054545454612 0  248.2227272727197 182.1790909090992 0  248.8818181818179 181.4527272727275 0  249.5409090909066 180.7263636363664 0  250.8666666666961 179.3666666666387 0  251.5333333334033 178.7333333332668 0  252.2000000000994 178.0999999999055 0  252.8666666668011 177.466666666539 0  253.5333333335083 176.8333333331671 0  254.2000000002044 176.1999999998058 0  254.8666666669005 175.5666666664445 0  255.5333333336077 174.9333333330727 0  256.2000000002685 174.2999999997449 0  256.8666666668457 173.6666666664966 0  257.5333333334283 173.033333333243 0  257.9000000000077 171.6500000000191 0  257.6000000000015 170.9000000000038 0  257.2999999999954 170.1499999999885 0  257.2230769230778 168.4769230769195 0  257.4461538461543 167.5538461538442 0  257.6692307692309 166.6307692307688 0  257.8923076923074 165.7076923076935 0  258.115384615384 164.7846153846181 0  258.3384615384605 163.8615384615427 0  258.5615384615395 162.9384615384572 0  258.784615384616 162.0153846153819 0  259.0076923076926 161.0923076923065 0  259.2307692307691 160.1692307692311 0  259.4538461538457 159.2461538461558 0  259.6769230769222 158.3230769230804 0  259.750000000001 156.512500000006 0  259.6000000000014 155.6250000000082 0  259.4500000000029 154.7375000000176 0  259.3000000000018 153.8500000000108 0  259.1500000000007 152.962500000004 0  259.0000000000004 152.0750000000026 0  258.849999999999 151.187499999994 0  258.9875000000052 149.4499999999846 0  259.275000000002 148.5999999999941 0  259.5624999999954 147.7500000000135 0  259.849999999995 146.900000000015 0  260.1374999999945 146.0500000000164 0  260.4249999999913 145.2000000000259 0  260.7124999999948 144.3500000000154 0  260.0700000000398 143.5899999999961 0  259.1400000000573 143.6799999999944 0  258.2100000000351 143.7699999999966 0  257.2800000000262 143.8599999999975 0  256.350000000011 143.9499999999989 0  255.4199999999881 144.0400000000011 0  254.4899999999726 144.1300000000026 0  253.5599999999944 144.2200000000005 0  252.6300000000009 144.3099999999999 0  251.4166666666658 143.4499999999971 0  251.1333333333388 142.5000000000182 0  250.8500000000015 141.5500000000051 0  250.5666666666612 140.5999999999818 0  250.2833333333342 139.6500000000029 0  249.2500000000005 138.5500000000001 0  248.5000000000011 138.4000000000002 0  247.7499999999995 138.2499999999999 0  246.7750000000005 137.1875000000023 0  246.5500000000021 136.2750000000085 0  246.3250000000036 135.3625000000147 0  246.1000000000042 134.450000000017 0  245.8750000000022 133.5375000000088 0  245.650000000003 132.6250000000124 0  245.4250000000046 131.7125000000187 0  245.619999999996 129.9200000000084 0  246.0399999999992 129.0400000000017 0  246.4599999999987 128.1600000000028 0  246.8800000000001 127.2799999999997 0  246.8399999999988 125.6199999999979 0  246.3799999999984 124.8399999999973 0  245.9199999999991 124.0599999999985 0  245.4600000000036 123.2800000000062 0  245.0000000000049 122.5000000000082 0  244.5400000000036 121.7200000000062 0  244.0800000000033 120.9400000000056 0  243.6200000000016 120.1600000000027 0  243.1600000000012 119.3800000000021 0  241.9812499999996 117.9187499999997 0  241.2625000000007 117.2375000000007 0  240.5437500000017 116.5562500000017 0  239.8250000000041 115.875000000004 0  239.1062500000066 115.1937500000063 0  238.3875000000076 114.5125000000072 0  237.6687500000087 113.8312500000082 0  236.9500000000083 113.1500000000079 0  236.231250000008 112.4687500000076 0  235.512500000009 111.7875000000085 0  234.7937500000045 111.1062500000043 0  234.0750000000042 110.4250000000039 0  233.3562500000066 109.7437500000062 0  232.6375000000021 109.062500000002 0  231.9187500000031 108.381250000003 0  230.5500000000004 107.0375000000004 0  229.9000000000021 106.3750000000021 0  229.2500000000038 105.7125000000039 0  228.6000000000041 105.0500000000042 0  227.9500000000018 104.3875000000018 0  227.2999999999952 103.7249999999951 0  226.6500000000024 103.0625000000024 0  226.0555555555555 101.4555555555556 0  226.1111111111111 100.5111111111111 0  226.1666666666667 99.56666666666668 0  226.2222222222222 98.62222222222223 0  226.2777777777778 97.67777777777778 0  226.3333333333333 96.73333333333335 0  226.3888888888889 95.78888888888889 0  226.4444444444445 94.84444444444446 0  226 93.22499999999999 0  225.5000000000026 92.55000000000358 0  225.0000000000026 91.87500000000358 0  224.5 90.31250000000068 0  224.5 89.4250000000097 0  224.5 88.53750000001317 0  224.5 87.65000000001388 0  224.5 86.76250000001457 0  224.5 85.87500000001248 0  224.5 84.9874999999993 0  225.1666666666659 83.41333333333409 0  225.8333333333319 82.72666666666818 0  226.4999999999978 82.04000000000228 0  227.1666666666649 81.35333333333514 0  227.8333333333301 80.66666666667 0  228.4999999999942 79.980000000006 0  229.1666666666601 79.2933333333401 0  229.8333333333316 78.60666666666847 0  230.4999999999975 77.92000000000257 0  231.1666666666644 77.23333333333572 0  231.8333333333295 76.54666666667057 0  232.4999999999972 75.86000000000287 0  233.1666666666681 75.17333333333181 0  233.8333333333368 74.48666666666306 0  233.7499999999995 73.16666666666629 0  233.0000000000018 72.53333333333488 0  232.2500000000014 71.90000000000116 0  231.5000000000009 71.26666666666743 0  230.7500000000005 70.63333333333372 0  229.233333333333 68.75000000000006 0  230.0666666666665 68.60000000000004 0  230.8999999999995 68.45000000000009 0  231.7333333333325 68.30000000000015 0  232.566666666667 68.14999999999995 0  232.5499999999897 68.50000000000607 0  231.7 69 0  230.8500000000103 69.49999999999393 0  227.8300000000008 68.16000000000106 0  227.2600000000064 67.42000000000837 0  226.6900000000077 66.68000000001001 0  226.1200000000024 65.94000000000314 0  225.5500000000108 65.20000000001409 0  224.9800000000098 64.46000000001268 0  224.4100000000007 63.72000000000098 0  223.8399999999971 62.97999999999621 0  223.2699999999993 62.23999999999915 0  222.753846153846 60.56923076923239 0  222.8076923076921 59.63846153846478 0  222.8615384615381 58.70769230769827 0  222.9153846153842 57.77692307693071 0  222.9692307692302 56.84615384616315 0  223.0230769230761 55.91538461539836 0  223.0769230769224 54.98461538462665 0  223.1307692307688 54.05384615385345 0  223.184615384615 53.12307692308312 0  223.2384615384611 52.19230769231556 0  223.2923076923071 51.26153846154906 0  223.3461538461533 50.33076923077847 0  222.8400000000024 48.62000000000327 0  222.2800000000047 47.84000000000661 0  221.7200000000005 47.06000000000071 0  221.1600000000003 46.28000000000039 0  221.4500000000116 45.87500000000512 0  222.3 46.25 0  223.1499999999884 46.62499999999488 0  223.5600000000055 46.22000000000981 0  223.1199999999987 45.43999999999767 0  222.6800000000061 44.66000000001075 0  222.2399999999969 43.8799999999944 0  221.6400000000004 42.16000000000253 0  221.4800000000009 41.22000000000548 0  221.3200000000014 40.28000000000801 0  221.1600000000009 39.34000000000556 0  220.25 38.45 0  219.4749999999999 39.30000000000165 0  219.45 40.09999999999999 0  219.425 40.90000000000112 0  219.0166666666641 40.89999999999463 0  218.6333333333375 40.10000000000875 0  218.2500000000016 39.30000000000339 0  217.8666666666635 38.49999999999351 0  217.483333333337 37.70000000000762 0  216.1750000000165 36.78750000000201 0  215.2500000000275 36.67500000000335 0  214.3250000000385 36.56250000000469 0  213.4000000000277 36.45000000000337 0  212.4750000000059 36.33750000000072 0  211.5499999999838 36.22499999999803 0  210.6249999999835 36.11249999999799 0  209.6600000000001 35.14000000000318 0  209.6200000000001 34.28000000000268 0  209.5800000000001 33.42000000000284 0  209.5399999999998 32.55999999999681 0  208.6200000000117 31.34000000000476 0  207.7400000000138 30.98000000000564 0  206.8600000000162 30.62000000000662 0  205.9800000000174 30.26000000000711 0  204.2000000000054 30.02499999999925 0  203.2999999999946 30.15000000000076 0  202.3999999999945 30.27500000000076 0  201.2444444444438 31.32222222222468 0  200.9888888888895 32.24444444
[...]
<PointData  Vectors="f_12"> 
<DataArray  type="Float64"  Name="f_12"  NumberOfComponents="3" format="ascii">5.8932291179643415e-01 6.1008649192112663e-01 1.2484950496580990e-01  6.6796007684042524e-01 7.0379762498468401e-01 2.4848814523102061e-01  7.2405046411905749e-01 6.5439424980207517e-01 4.4793815923465929e-01  7.2389607959803615e-01 5.6341159429881416e-01 5.7186553310243537e-01  6.0338907651013218e-01 1.4695214730243289e-01 6.2889607474536813e-01  5.3314495018376462e-01 1.1103653463268816e-01 3.4715858297514690e-01  5.2257760784203677e-01 9.9889305883903101e-02 3.0626708688109994e-01  5.1390680083092533e-01 2.2564372071864672e-01 1.8208015749349260e-01  5.0860803899690765e-01 3.0443536094788559e-01 1.0388689089524639e-01  5.0826589193301508e-01 3.1266312919317091e-01 9.6562818212741736e-02  4.9378538472189559e-01 2.4695207875335079e-01 8.8824216558747060e-02  4.8757541243059338e-01 2.1167030620133687e-01 8.9134545865474410e-02  4.8728230702902231e-01 2.1515436089606454e-01 8.5990048181900924e-02  4.8505979548047001e-01 1.8070699955246405e-01 9.8649678728620363e-02  4.9242580719978579e-01 1.2430901087105116e-01 1.5964466678725811e-01  5.2474601832325529e-01 8.8561120129356713e-02 3.1683433629057900e-01  5.5235169059179634e-01 9.2971642804595758e-02 4.3489771157776519e-01  6.3482364868858276e-01 1.4406996183723386e-01 7.3898933073946005e-01  6.2980911567034192e-01 1.4476830559819506e-01 7.2461582893384180e-01  5.5529397122738400e-01 1.2742130187434522e-01 4.3081816682261825e-01  5.7115776383718730e-01 1.1793475928378218e-01 5.0643832417766876e-01  5.6352355571522594e-01 1.0424850645031124e-01 4.8627070541577144e-01  5.8751027721459059e-01 4.6120454075180312e-01 2.6869279132002544e-01  7.5565072906733777e-01 6.1378837824257149e-01 5.5943511660208922e-01  7.2534022416075450e-01 6.5866515660829772e-01 4.4354431699240676e-01  7.6226293133624923e-01 6.2014106268323677e-01 5.6111208127900247e-01  7.6359114697828134e-01 6.0783891973746274e-01 5.8001330302208731e-01  7.6976191703310426e-01 6.1356464470716776e-01 5.8044589703083205e-01  7.6974405835102100e-01 6.1340770752356022e-01 5.8064115071354450e-01  7.6656551895294167e-01 5.9180175479210573e-01 6.0619457367873841e-01  7.7329375069311512e-01 5.4468146329047518e-01 6.7823876780488557e-01  7.8408280649024986e-01 5.5468867356277307e-01 6.7682443889499766e-01  7.9173244533881604e-01 5.8261312537374921e-01 6.4717637239877956e-01  7.9341992181659660e-01 5.9062571785770568e-01 6.3782110730803854e-01  7.9354997567364727e-01 5.9102362292170840e-01 6.3739253185515388e-01  7.8615809810520043e-01 5.5663682764770184e-01 6.7643633580154139e-01  7.7420515911252408e-01 5.2300976180280589e-01 7.0643985497108774e-01  7.1075158981156317e-01 5.5112079697264438e-01 5.6100605754412869e-01  6.6614958923106260e-01 5.7691601813833970e-01 4.0785722131673435e-01  6.3566023889550249e-01 5.8068826387012684e-01 3.1287481642757775e-01  5.2222306935760465e-01 3.1762543546115724e-01 1.4550321541020356e-01  5.2744676916471123e-01 3.2990268109860815e-01 1.5560913562395720e-01  5.9560001307494514e-01 5.1024832824590649e-01 2.5079828741547638e-01  5.7417429069902204e-01 4.5541912265502466e-01 2.2334509286740103e-01  5.1159973249193791e-01 2.3267318296699857e-01 1.6710695401727624e-01  5.4524293138697122e-01 1.3294257858585534e-01 3.7859061615207484e-01  6.7371967069193173e-01 1.9555801998433950e-01 8.2698445654583774e-01  6.7159414079982604e-01 1.9072392558848539e-01 8.2399959666548572e-01  6.5236678998269637e-01 1.6121503656361921e-01 7.8376324723820046e-01  6.2683681434547156e-01 1.2983082027016787e-01 7.1693273792557333e-01  5.9560202393795947e-01 1.0452195111358835e-01 6.1140908758535706e-01  5.6401080809617965e-01 8.7328402453725515e-02 4.8888780886781225e-01  5.4256547945173306e-01 8.2356393141275727e-02 3.9755139213456880e-01  5.3023425519737488e-01 8.1404707877044125e-02 3.4387334505294853e-01  5.1896334188229765e-01 8.4507129783533794e-02 2.9282676467023866e-01  5.0289544968771160e-01 9.7492117632241443e-02 2.1728884316152283e-01  5.0046506565372129e-01 1.7465559321215043e-01 1.5944505978834314e-01  5.4373844053722753e-01 4.3060994905104183e-01 1.3222638607346204e-01  5.5741522357205064e-01 4.8679938492123509e-01 1.3429130890730376e-01  6.3679508667848683e-01 6.3070352281892106e-01 2.5043293970494018e-01  7.3681947047326801e-01 6.0059579352989090e-01 5.4777266732960472e-01  7.4326614098949229e-01 5.7731379065866628e-01 5.9200502974243996e-01  7.3835224561272395e-01 5.5888296076584043e-01 6.0791110870380904e-01  7.1777800008920345e-01 4.8574667452835152e-01 6.5895505141277011e-01  6.8000438309310118e-01 3.7026501701953818e-01 6.9935163754206331e-01  5.7045615621602963e-01 2.2083658307609508e-01 4.3485412146613828e-01  5.3724400797183847e-01 1.5106240442639846e-01 3.4194390335850400e-01  5.3284247322230593e-01 1.3042443071150736e-01 3.3631614727535641e-01  5.3551227606171192e-01 1.2262681138251832e-01 3.5320974977080904e-01  5.4747906518237321e-01 1.1559112939221290e-01 4.1113052206496653e-01  5.4176942862667998e-01 1.1287277488941844e-01 3.8743947550252156e-01  5.8426350939483374e-01 1.2933858251687463e-01 5.6489951679930650e-01  7.2092724738230007e-01 4.4166573419289945e-01 7.1633115536837644e-01  7.4074846574339825e-01 5.1902646542409470e-01 6.6430535265052171e-01  6.1671042380331476e-01 1.8534129900153209e-01 6.4831343696475985e-01  7.0485821975108454e-01 5.7224458225385078e-01 5.1604885817256230e-01  6.5970693651517021e-01 6.4952563426175514e-01 2.9496448178863138e-01  6.3635677528535761e-01 6.5856484608712684e-01 2.1749446091901053e-01  5.9843243888286712e-01 6.2462769826609366e-01 1.3857926592235953e-01  5.9300000999924007e-01 6.1686884057063929e-01 1.2964077543526989e-01  5.8979420170118113e-01 6.1092835736773776e-01 1.2549357972220335e-01  5.9081384951575688e-01 6.1279176184738871e-01 1.2684660148478369e-01  5.9197855142364841e-01 6.1497027984006514e-01 1.2833753720688312e-01  5.9555464305354255e-01 6.2134490297603384e-01 1.3308268089228986e-01  6.0008007293878418e-01 6.2900901779512908e-01 1.3928270170726245e-01  6.0584641887238277e-01 6.3833456303313241e-01 1.4732008802672195e-01  6.1248559007218784e-01 6.4843212351692281e-01 1.5678130744406144e-01  6.1978061641491378e-01 6.5873232965416595e-01 1.6745046423381818e-01  6.2746482742825260e-01 6.6870397276031346e-01 1.7896489730421783e-01  6.3548147902025165e-01 6.7802056210907402e-01 1.9145784279066852e-01  6.4362762525592199e-01 6.8639074145343992e-01 2.0463859972120316e-01  6.5173042890005239e-01 6.9358094849940966e-01 2.1829187930318986e-01  6.5984304893278345e-01 6.9939055447113796e-01 2.3288196522366686e-01  6.7525121307160274e-01 7.0660035801625221e-01 2.6337289388611063e-01  6.8202227798702231e-01 7.0797972748970728e-01 2.7827602917638594e-01  6.8846678313635779e-01 7.0781966299963350e-01 2.9399535545144329e-01  6.9457830355590311e-01 7.0614489707829564e-01 3.1060929048833186e-01  7.0030076657405227e-01 7.0299174496851002e-01 3.2805141810337446e-01  7.0559065880173966e-01 6.9844973116035880e-01 3.4620839674766735e-01  7.1041557913716991e-01 6.9240096573790766e-01 3.6527516682087036e-01  7.1468877097451877e-01 6.8503173965965380e-01 3.8487930164003908e-01  7.1830572863147113e-01 6.7667583792465169e-01 4.0438549215896075e-01  7.2117568439133606e-01 6.6782165405414751e-01 4.2295783422574390e-01  7.2316301645610892e-01 6.5955255139038216e-01 4.3880702408760569e-01  7.2442042274710450e-01 6.4694736729266455e-01 4.5916923181561026e-01  7.2487135545176595e-01 6.2997185152184509e-01 4.8377038385227517e-01  7.2491484877763224e-01 6.0374602255929544e-01 5.1988302709170398e-01  7.2095850732988276e-01 5.1159346341651879e-01 6.3275587031836777e-01  7.1647724228714127e-01 4.6562375483299617e-01 6.7977120207576491e-01  7.1028807973432040e-01 4.2162817451989248e-01 7.1728485867438596e-01  7.0246868475836843e-01 3.7941454768876842e-01 7.4539926953864355e-01  6.9320131641056626e-01 3.3947558016323937e-01 7.6368808955480816e-01  6.8273857071113508e-01 3.0238720453077611e-01 7.7199236205294353e-01  6.7137814305350973e-01 2.6866703619607191e-01 7.7056155008328986e-01  6.5942896053656563e-01 2.3860188464066040e-01 7.6019893376043646e-01  6.4724782159458383e-01 2.1250005049499890e-01 7.4200862595382100e-01  6.3505692950323422e-01 1.9024343478422803e-01 7.1730517169150743e-01  6.2330897032474619e-01 1.7184063755842283e-01 6.8833971135064920e-01  6.1238734524098903e-01 1.5720759874870791e-01 6.5730842338403295e-01  5.9466990516906093e-01 1.3903486217772770e-01 5.9851767390261112e-01  5.8466993636308084e-01 1.3145013992255306e-01 5.6149161679818871e-01  5.7451552070611112e-01 1.2505848029465599e-01 5.2202346678113931e-01  5.6472132443864198e-01 1.2011042761635975e-01 4.8239016055954270e-01  5.5562129110687042e-01 1.1652727852918308e-01 4.4437637839075950e-01  5.4739198390822963e-01 1.1405035341418183e-01 4.0920252393260287e-01  5.4000046452566086e-01 1.1238388477364628e-01 3.7710385433726079e-01  5.2826271786641998e-01 1.0906568303561306e-01 3.2647798615033347e-01  5.2532484451898331e-01 1.0744172820147221e-01 3.1427757742060020e-01  5.2365598318680884e-01 1.0570733931718877e-01 3.0780967765210943e-01  5.2276707654202570e-01 1.0406289442617654e-01 3.0475748482739001e-01  5.2242535020792447e-01 1.0251422476151360e-01 3.0409419342401600e-01  5.2240244608074382e-01 1.0119135663687628e-01 3.0473524216979897e-01  5.2251021418534638e-01 1.0024402568877686e-01 3.0575864981502549e-01  5.2243139698562602e-01 1.0044479700087933e-01 3.0527511648366429e-01  5.2191015220784120e-01 1.0242797916362471e-01 3.0172154796419887e-01  5.2100462304560213e-01 1.0616093918877700e-01 2.9534391200647225e-01  5.1981257314546969e-01 1.1195493269547292e-01 2.8636018810858632e-01  5.1846935345473533e-01 1.2021769561011639e-01 2.7507321360578374e-01  5.1714610313023235e-01 1.3133700595331044e-01 2.6192941304159689e-01  5.1600555190474751e-01 1.4579134691344309e-01 2.4724396927931633e-01  5.1513760993828017e-01 1.6427355333788241e-01 2.3082566939354301e-01  5.1452646906040234e-01 1.8847339953334649e-01 2.1127362207422651e-01  5.1283977057285202e-01 2.5986179970338530e-01 1.5284480409135404e-01  5.1174927673181214e-01 2.7849837877198946e-01 1.3485724110026462e-01  5.1072127704163350e-01 2.9082123086647610e-01 1.2181839179624823e-01  5.0973193199105626e-01 2.9818471353479920e-01 1.1265948967834992e-01  5.0894517765014557e-01 3.0237520688213088e-01 1.0664544518064707e-01  5.0858979561610873e-01 3.0570441403046045e-01 1.0289329788325810e-01  5.0859869309856198e-01 3.0808264051460227e-01 1.0118670165735999e-01  5.0857919243712302e-01 3.1069970222811588e-01 9.9189666513807923e-02  5.0669027944643552e-01 3.0900110089781546e-01 9.3374351837052005e-02  5.0500392651573356e-01 3.0293890875355844e-01 9.1503725371833947e-02  5.0326076911069484e-01 2.9561332411926650e-01 9.0291040530170119e-02  5.0149682326099865e-01 2.8748262692392640e-01 8.9520168504275854e-02  4.9972762539614279e-01 2.7877454042590594e-01 8.9071466863728313e-02  4.9794395921546980e-01 2.6955419526686969e-01 8.8853913324706338e-02  4.9607577862376723e-01 2.5953653604041366e-01 8.8793500968530698e-02  4.9148295007774873e-01 2.3409622517846698e-01 8.8896774904762291e-02  4.8987926876387011e-01 2.2497537748368798e-01 8.8988078733299697e-02  4.8871775600325462e-01 2.1827694132981265e-01 8.9072933863145715e-02  4.8794161234347622e-01 2.1377494718697346e-01 8.9126624215276409e-02  4.8742144746180527e-01 2.1088557154677340e-01 8.9074677169734592e-02  4.8727891396731421e-01 2.1031315446315779e-01 8.8924284364454223e-02  4.8717618317540845e-01 2.1009890508156132e-01 8.8694878103374841e-02  4.8710842901939638e-01 2.1020221284758561e-01 8.8395166517762150e-02  4.8709003620255487e-01 2.1069108869392875e-01 8.8033845017363457e-02  4.8710103499508861e-01 2.1142142655786797e-01 8.7628716445248403e-02  4.8713090455611047e-01 2.1230086717496513e-01 8.7198749289081598e-02  4.8718151080827343e-01 2.1331073890351948e-01 8.6761283968376846e-02  4.8723446732485715e-01 2.1429761930070901e-01 8.6345354109156627e-02  4.8735187535944041e-01 2.1615628402794268e-01 8.5620630195782602e-02  4.8741209827103898e-01 2.1708414528337808e-01 8.5262176941240497e-02  4.8744956688107949e-01 2.1777574776233563e-01 8.4966816854369451e-02  4.8744127465791370e-01 2.1803387518733400e-01 8.4774851191086409e-02  4.8738504109636765e-01 2.1780822327659019e-01 8.4709286809652201e-02  4.8728135354631452e-01 2.1706500949877525e-01 8.4791937865356562e-02  4.8712717927578403e-01 2.1575053353851004e-01 8.5044088051007452e-02  4.8692800018389926e-01 2.1386711812121015e-01 8.5481903611755519e-02  4.8669400370823257e-01 2.1144657712213971e-01 8.6119645818704058e-02  4.8643042188434571e-01 2.0847921716300655e-01 8.6978998889654074e-02  4.8614892748336491e-01 2.0499463037040655e-01 8.8080248799848063e-02  4.8586572073216316e-01 2.0104224639999202e-01 8.9447516021830625e-02  4.8559155967456241e-01 1.9660811399700981e-01 9.1124278209992263e-02  4.8535307117608378e-01 1.9174944689608736e-01 9.3167242298464695e-02  4.8516660286021734e-01 1.8645088348960032e-01 9.5642150364163167e-02  4.8506521643500466e-01 1.7498608757818898e-01 1.0203279740737717e-01  4.8520645323326989e-01 1.6904140862985484e-01 1.0602779230650257e-01  4.8551381880726174e-01 1.6284003772015238e-01 1.1077286946718483e-01  4.8604748433577327e-01 1.5633522314336110e-01 1.1653126333118279e-01  4.8685152427847850e-01 1.4950564390340415e-01 1.2350256928770004e-01  4.8801373425750094e-01 1.4224162600143769e-01 1.3211687986395393e-01  4.8970760494728327e-01 1.3423780357502735e-01 1.4326963131082401e-01  4.9574858941099237e-01 1.1505394972000488e-01 1.7822393725243665e-01  4.9877300974223332e-01 1.0855719352422534e-01 1.9424352817393664e-01  5.0193790225815205e-01 1.0332118221696197e-01 2.1032379827124789e-01  5.0535811277803178e-01 9.8986822927153245e-02 2.2714770761230438e-01  5.0906503879554688e-01 9.5422012095125602e-02 2.4492891830650249e-01  5.1303691661629480e-01 9.2594736060396379e-02 2.6359639926544892e-01  5.1719449899280645e-01 9.0501256113275794e-02 2.8279621281087292e-01  5.2133324766863498e-01 8.9150328325301745e-02 3.0159463630245376e-01  5.2816034395565792e-01 8.8578000379736135e-02 3.3172431812464426e-01  5.3378180247974572e-01 8.9080280081934970e-02 3.5598778740709652e-01  5.4139930065413844e-01 9.0356612480822912e-02 3.8855287160537549e-01  5.6515934944255808e-01 9.7020687922830265e-02 4.8821776359301422e-01  5.7646866376773331e-01 1.0156988605292663e-01 5.3411481489774981e-01  5.8737620184792827e-01 1.0697807976316924e-01 5.7686371099410894e-01  5.9800538610856935e-01 1.1326481025671771e-01 6.1681681387428211e-01  6.0817338096404228e-01 1.2028482746695444e-01 6.5323630452664017e-01  6.1767892825830262e-01 1.2779857792701751e-01 6.8551555134158304e-01  6.2629768704192279e-01 1.3549291095405586e-01 7.1319626412113934e-01  6.4115054180317887e-01 1.5128222200473743e-01 7.5691778821780398e-01  6.4423965406043249e-01 1.5533358446557674e-01 7.6513572728099932e-01  6.4549089146925742e-01 1.5747110454178417e-01 7.6819057188793782e-01  6.4541836665528651e-01 1.5813231032556122e-01 7.6773019992032066e-01  6.4436988217618874e-01 1.5765371833814523e-01 7.6475148527788450e-01  6.4263309015738745e-01 1.5635004725668586e-01 7.5999256830583417e-01  6.4048310109771456e-01 1.5453327075212270e-01 7.5413411464202162e-01  6.3818146127894892e-01 1.5249583858563842e-01 7.4783710741716469e-01  6.3591417450045273e-01 1.5044979370683276e-01 7.4157724227637056e-01  6.3387610874390266e-01 1.4859370717430279e-01 7.3590084945828871e-01  6.3216059175257622e-01 1.4702773506453570e-01 7.3107745837699412e-01  6.3088829396340396e-01 1.4585720071750186e-01 7.2749016881696882e-01  6.3008728408613845e-01 1.4510501580713164e-01 7.2524852789639382e-01  6.2967639958751187e-01 1.4471099060278345e-01 7.2410977532034115e-01  6.2782408848680205e-01 1.4339353140267586e-01 7.1806207079097573e-01  6.2206969655982158e-01 1.3961631701477997e-01 6.9865399043368481e-01  6.1291496894979536e-01 1.3423788455494487e-01 6.6657729668454846e-01  6.0119067915815716e-01 1.2843660296845422e-01 6.2356570104756315e-01  5.8747870718089312e-01 1.2308125162600841e-01 5.7093789289482078e-01  5.6271138596559744e-01 1.1852256334552627e-01 4.7004736709140071e-01  5.6478978301517957e-01 1.1321486527360899e-01 4.8369636363422630e-01  5.6443815698224487e-01 1.0925885674186725e-01 4.8577774465407592e-01  5.6394581546995892e-01 1.0656793514450572e-01 4.8606401300261209e-01  5.6364452846037472e-01 1.0497628934116786e-01 4.8616282312283987e-01  5.6367005699726558e-01 1.0512409805789051e-01 4.8614467652693727e-01  5.6412910682835526e-01 1.0728285493933142e-01 4.8621909948654579e-01  5.6542964391129757e-01 1.1110991707033438e-01 4.8833246440666739e-01  5.4467395234768512e-01 1.4233742567529664e-01 3.7389152147302945e-01  5.3811987275687900e-01 1.5917683874809690e-01 3.3350114282184740e-01  5.3454775593235448e-01 1.7989384845022366e-01 3.0312103197004847e-01  5.3375821834905657e-01 2.0506642057758839e-01 2.8098140394162352e-01  5.3567727078502358e-01 2.3497336044287970e-01 2.6599228288608978e-01  5.4021163190687382e-01 2.6955262844671990e-01 2.5717122600909514e-01  5.4731518236323151e-01 3.0869626176082648e-01 2.5363473779348550e-01  5.5702583055650279e-01 3.5237026757115480e-01 2.5456754897285994e-01  5.6969188671157589e-01 4.0125720751804772e-01 2.5934877207699053e-01  6.0660017366721797e-01 5.1724486077845333e-01 2.8049619083128552e-01  6.2197521009776435e-01 5.5656089598847491e-01 2.9090998153495651e-01  6.3594865325936722e-01 5.8761069503245911e-01 3.0127897596895115e-01  6.4886709566102296e-01 6.1209165884284966e-01 3.1213679064122762e-01  6.6092941001313055e-01 6.3114956264308364e-01 3.2390092133138104e-01  6.7215789437205942e-01 6.4538838774572815e-01 3.3680307723657882e-01  6.8257440581524342e-01 6.5540593211695508e-01 3.5094399563562201e-01  6.9217386231015343e-01 6.6175880950149502e-01 3.6625155724163166e-01  7.0093841595022954e-01 6.6498906718927098e-01 3.8251306538711710e-01  7.0880424172235346e-01 6.6564896333707957e-01 3.9927507857721367e-01  7.1570285431488789e-01 6.6428788369341429e-01 4.1600369403926857e-01  7.2147199839786191e-01 6.6152138177579556e-01 4.3180480253062958e-01  7.2919686777191706e-01 6.5376467796261628e-01 4.5779020907425194e-01  7.3432559916571971e-01 6.4595231811742959e-01 4.7821881591904952e-01  7.4009813600165997e-01 6.3628757269848490e-01 5.0203435777186056e-01  7.4662719339051919e-01 6.2549002295908096e-01 5.2829508809894343e-01  7.6018385628648610e-01 6.1550392449192237e-01 5.6430192408044688e-01  7.6158427383891492e-01 6.1783480045548700e-01 5.6327412957100886e-01  7.6209992688876238e-01 6.1946620501245531e-01 5.6180344782924196e-01  7.6211036843391999e-01 6.1950231183779969e-01 5.6176912695322057e-01  7.6180852842004010e-01 6.1792390281768628e-01 5.6349933727867496e-01  7.6164240788844717e-01 6.1533269028724047e-01 5.6682361462654396e-01  7.6214803700163425e-01 6.1180758387452805e-01 5.7243359326245424e-01  7.6559101730885271e-01 6.0573248768196697e-01 5.8575670159158144e-01  7.6727843927282724e-01 6.0662449889388304e-01 5.8682974158487144e-01  7.6859380837418323e-01 6.0952556167359662e-01 5.8455370753136116e-01  7.6945089187958315e-01 6.1238209398852750e-01 5.8169431077421230e-01  7.6973467069086676e-01 6.1341339143122253e-01 5.8062125362220895e-01  7.6951730576141708e-01 6.1236156873721448e-01 5.8180582569100248e-01  7.6890175764099611e-01 6.0939618733767975e-01 5.8512566709869129e-01  7.6793246894566336e-01 6.0357818593200308e-01 5.9188508746977342e-01  7.6789049152281263e-01 5.7345270603115439e-01 6.3294088903380419e-01  7.6934195297135843e-01 5.6274516740134284e-01 6.4927576698085665e-01  7.7070254117698789e-01 5.5525440274437321e-01 6.6102950398144500e-01  7.7187988065011570e-01 5.4989079021005727e-01 6.6962902513979383e-01  7.7279627222137282e-01 5.4637022862375617e-01 6.7541101670288017e-01  7.7370185830769900e-01 5.4338158605391174e-01 6.8041945941567750e-01  7.7437121280818022e-01 5.4169776601783370e-01 6.8338863816888240e-01  7.7523505050