<?xml version="1.0"?>
<VTKFile type="UnstructuredGrid"  version="0.1"  >
<UnstructuredGrid>
<Piece  NumberOfPoints="7288" NumberOfCells="14083">
<Points>
<DataArray  type="Float64"  NumberOfComponents="3"  format="ascii">239.8 188 0  250.2 180 0  258.2 172.4 0  257 169.4 0  259.9 157.4 0  258.7 150.3 0  261 143.5 0  251.7 144.4 0  250 138.7 0  247 138.1 0  245.2 130.8 0  247.3 126.4 0  242.7 118.6 0  231.2 107.7 0  226 102.4 0  226.5 93.90000000000001 0  224.5 91.19999999999999 0  224.5 84.09999999999999 0  234.5 73.80000000000001 0  228.4 68.90000000000001 0  230 70 0  233.4 68 0  222.7 61.5 0  220.6 45.5 0  223.4 49.40000000000001 0  224 47 0  221.8 43.09999999999999 0  221 38.40000000000001 0  219.5 38.5 0  219.4 41.69999999999999 0  217.1 36.90000000000001 0  209.7 36 0  209.5 31.69999999999999 0  205.1 29.90000000000001 0  201.5 30.40000000000001 0  199.2 38.69999999999999 0  201.8 41.40000000000001 0  194.8 53.80000000000001 0  196.1 57.69999999999999 0  193 59 0  191.4 66.09999999999999 0  193.5 66.5 0  194.1 64.40000000000001 0  195.6 64.69999999999999 0  195.4 72.40000000000001 0  199.5 77.30000000000001 0  197.7 86.90000000000001 0  200.6 87.5 0  201.5 91 0  198 94.80000000000001 0  198.6 100 0  197.3 105.4 0  198 109.5 0  197 112.7 0  198.3 116.1 0  201.3 122 0  207.2 121 0  208.1 126.7 0  205.6 127.9 0  209.1 134.9 0  210.9 144.4 0  210.1 147.9 0  213 148.4 0  215.4 149.3 0  215.1 152.8 0  219.9 159.7 0  220.3 163.2 0  218.7 164.9 0  219.9 166.7 0  221.9 169.7 0  220 170.3 0  224.9 174.7 0  229.8 177.4 0  229.7 181 0  228 172.9 0  239 178 0  240.4 180 0  239 181.5 0  241.2 185.9 0  242.95 187.99 0  240.5875 187.9975 0  241.375 187.995 0  242.1625 187.9925 0  243.6090909090879 187.2636363636397 0  244.2681818181765 186.5372727272785 0  244.9272727272692 185.810909090913 0  245.5863636363531 185.0845454545571 0  246.245454545445 184.3581818181923 0  246.9045454545351 183.6318181818295 0  247.5636363636303 182.9054545454612 0  248.2227272727197 182.1790909090992 0  248.8818181818179 181.4527272727275 0  249.5409090909066 180.7263636363664 0  250.8666666666961 179.3666666666387 0  251.5333333334033 178.7333333332668 0  252.2000000000994 178.0999999999055 0  252.8666666668011 177.466666666539 0  253.5333333335083 176.8333333331671 0  254.2000000002044 176.1999999998058 0  254.8666666669005 175.5666666664445 0  255.5333333336077 174.9333333330727 0  256.2000000002685 174.2999999997449 0  256.8666666668457 173.6666666664966 0  257.5333333334283 173.033333333243 0  257.9000000000077 171.6500000000191 0  257.6000000000015 170.9000000000038 0  257.2999999999954 170.1499999999885 0  257.2230769230778 168.4769230769195 0  257.4461538461543 167.5538461538442 0  257.6692307692309 166.6307692307688 0  257.8923076923074 165.7076923076935 0  258.115384615384 164.7846153846181 0  258.3384615384605 163.8615384615427 0  258.5615384615395 162.9384615384572 0  258.784615384616 162.0153846153819 0  259.0076923076926 161.0923076923065 0  259.2307692307691 160.1692307692311 0  259.4538461538457 159.2461538461558 0  259.6769230769222 158.3230769230804 0  259.750000000001 156.512500000006 0  259.6000000000014 155.6250000000082 0  259.4500000000029 154.7375000000176 0  259.3000000000018 153.8500000000108 0  259.1500000000007 152.962500000004 0  259.0000000000004 152.0750000000026 0  258.849999999999 151.187499999994 0  258.9875000000052 149.4499999999846 0  259.275000000002 148.5999999999941 0  259.5624999999954 147.7500000000135 0  259.849999999995 146.900000000015 0  260.1374999999945 146.0500000000164 0  260.4249999999913 145.2000000000259 0  260.7124999999948 144.3500000000154 0  260.0700000000398 143.5899999999961 0  259.1400000000573 143.6799999999944 0  258.2100000000351 143.7699999999966 0  257.2800000000262 143.8599999999975 0  256.350000000011 143.9499999999989 0  255.4199999999881 144.0400000000011 0  254.4899999999726 144.1300000000026 0  253.5599999999944 144.2200000000005 0  252.6300000000009 144.3099999999999 0  251.4166666666658 143.4499999999971 0  251.1333333333388 142.5000000000182 0  250.8500000000015 141.5500000000051 0  250.5666666666612 140.5999999999818 0  250.2833333333342 139.6500000000029 0  249.2500000000005 138.5500000000001 0  248.5000000000011 138.4000000000002 0  247.7499999999995 138.2499999999999 0  246.7750000000005 137.1875000000023 0  246.5500000000021 136.2750000000085 0  246.3250000000036 135.3625000000147 0  246.1000000000042 134.450000000017 0  245.8750000000022 133.5375000000088 0  245.650000000003 132.6250000000124 0  245.4250000000046 131.7125000000187 0  245.619999999996 129.9200000000084 0  246.0399999999992 129.0400000000017 0  246.4599999999987 128.1600000000028 0  246.8800000000001 127.2799999999997 0  246.8399999999988 125.6199999999979 0  246.3799999999984 124.8399999999973 0  245.9199999999991 124.0599999999985 0  245.4600000000036 123.2800000000062 0  245.0000000000049 122.5000000000082 0  244.5400000000036 121.7200000000062 0  244.0800000000033 120.9400000000056 0  243.6200000000016 120.1600000000027 0  243.1600000000012 119.3800000000021 0  241.9812499999996 117.9187499999997 0  241.2625000000007 117.2375000000007 0  240.5437500000017 116.5562500000017 0  239.8250000000041 115.875000000004 0  239.1062500000066 115.1937500000063 0  238.3875000000076 114.5125000000072 0  237.6687500000087 113.8312500000082 0  236.9500000000083 113.1500000000079 0  236.231250000008 112.4687500000076 0  235.512500000009 111.7875000000085 0  234.7937500000045 111.1062500000043 0  234.0750000000042 110.4250000000039 0  233.3562500000066 109.7437500000062 0  232.6375000000021 109.062500000002 0  231.9187500000031 108.381250000003 0  230.5500000000004 107.0375000000004 0  229.9000000000021 106.3750000000021 0  229.2500000000038 105.7125000000039 0  228.6000000000041 105.0500000000042 0  227.9500000000018 104.3875000000018 0  227.2999999999952 103.7249999999951 0  226.6500000000024 103.0625000000024 0  226.0555555555555 101.4555555555556 0  226.1111111111111 100.5111111111111 0  226.1666666666667 99.56666666666668 0  226.2222222222222 98.62222222222223 0  226.2777777777778 97.67777777777778 0  226.3333333333333 96.73333333333335 0  226.3888888888889 95.78888888888889 0  226.4444444444445 94.84444444444446 0  226 93.22499999999999 0  225.5000000000026 92.55000000000358 0  225.0000000000026 91.87500000000358 0  224.5 90.31250000000068 0  224.5 89.4250000000097 0  224.5 88.53750000001317 0  224.5 87.65000000001388 0  224.5 86.76250000001457 0  224.5 85.87500000001248 0  224.5 84.9874999999993 0  225.1666666666659 83.41333333333409 0  225.8333333333319 82.72666666666818 0  226.4999999999978 82.04000000000228 0  227.1666666666649 81.35333333333514 0  227.8333333333301 80.66666666667 0  228.4999999999942 79.980000000006 0  229.1666666666601 79.2933333333401 0  229.8333333333316 78.60666666666847 0  230.4999999999975 77.92000000000257 0  231.1666666666644 77.23333333333572 0  231.8333333333295 76.54666666667057 0  232.4999999999972 75.86000000000287 0  233.1666666666681 75.17333333333181 0  233.8333333333368 74.48666666666306 0  233.7499999999995 73.16666666666629 0  233.0000000000018 72.53333333333488 0  232.2500000000014 71.90000000000116 0  231.5000000000009 71.26666666666743 0  230.7500000000005 70.63333333333372 0  229.233333333333 68.75000000000006 0  230.0666666666665 68.60000000000004 0  230.8999999999995 68.45000000000009 0  231.7333333333325 68.30000000000015 0  232.566666666667 68.14999999999995 0  232.5499999999897 68.50000000000607 0  231.7 69 0  230.8500000000103 69.49999999999393 0  227.8300000000008 68.16000000000106 0  227.2600000000064 67.42000000000837 0  226.6900000000077 66.68000000001001 0  226.1200000000024 65.94000000000314 0  225.5500000000108 65.20000000001409 0  224.9800000000098 64.46000000001268 0  224.4100000000007 63.72000000000098 0  223.8399999999971 62.97999999999621 0  223.2699999999993 62.23999999999915 0  222.753846153846 60.56923076923239 0  222.8076923076921 59.63846153846478 0  222.8615384615381 58.70769230769827 0  222.9153846153842 57.77692307693071 0  222.9692307692302 56.84615384616315 0  223.0230769230761 55.91538461539836 0  223.0769230769224 54.98461538462665 0  223.1307692307688 54.05384615385345 0  223.184615384615 53.12307692308312 0  223.2384615384611 52.19230769231556 0  223.2923076923071 51.26153846154906 0  223.3461538461533 50.33076923077847 0  222.8400000000024 48.62000000000327 0  222.2800000000047 47.84000000000661 0  221.7200000000005 47.06000000000071 0  221.1600000000003 46.28000000000039 0  221.4500000000116 45.87500000000512 0  222.3 46.25 0  223.1499999999884 46.62499999999488 0  223.5600000000055 46.22000000000981 0  223.1199999999987 45.43999999999767 0  222.6800000000061 44.66000000001075 0  222.2399999999969 43.8799999999944 0  221.6400000000004 42.16000000000253 0  221.4800000000009 41.22000000000548 0  221.3200000000014 40.28000000000801 0  221.1600000000009 39.34000000000556 0  220.25 38.45 0  219.4749999999999 39.30000000000165 0  219.45 40.09999999999999 0  219.425 40.90000000000112 0  219.0166666666641 40.89999999999463 0  218.6333333333375 40.10000000000875 0  218.2500000000016 39.30000000000339 0  217.8666666666635 38.49999999999351 0  217.483333333337 37.70000000000762 0  216.1750000000165 36.78750000000201 0  215.2500000000275 36.67500000000335 0  214.3250000000385 36.56250000000469 0  213.4000000000277 36.45000000000337 0  212.4750000000059 36.33750000000072 0  211.5499999999838 36.22499999999803 0  210.6249999999835 36.11249999999799 0  209.6600000000001 35.14000000000318 0  209.6200000000001 34.28000000000268 0  209.5800000000001 33.42000000000284 0  209.5399999999998 32.55999999999681 0  208.6200000000117 31.34000000000476 0  207.7400000000138 30.98000000000564 0  206.8600000000162 30.62000000000662 0  205.9800000000174 30.26000000000711 0  204.2000000000054 30.02499999999925 0  203.2999999999946 30.15000000000076 0  202.3999999999945 30.27500000000076 0  201.2444444444438 31.32222222222468 0  200.9888888888895 32.24444444
[...]
<PointData  Vectors="f_12"> 
<DataArray  type="Float64"  Name="f_12"  NumberOfComponents="3" format="ascii">5.5696768431340393e-01 2.6915967895735626e-01 6.7361009969613228e-01  5.5574246516573933e-01 2.6440950760329401e-01 6.7249946209256517e-01  5.5426184232943798e-01 2.5885868558817310e-01 6.7095755340922125e-01  5.5354533566451969e-01 2.5629925179136320e-01 6.7011011713351620e-01  5.4861416427645959e-01 2.3967510422972213e-01 6.6311757317609177e-01  5.4529520772827389e-01 2.2960978272055163e-01 6.5723622191077757e-01  5.4428673289372054e-01 2.2656844549355815e-01 6.5532900967758434e-01  5.3907724157377024e-01 2.1363446062523520e-01 6.4363504612015132e-01  5.3181014210530131e-01 1.9723432962827855e-01 6.2474791012190167e-01  5.2820965909162876e-01 1.9043800397386615e-01 6.1390012719883458e-01  5.1612645547449376e-01 1.7148710500546141e-01 5.7235616672220013e-01  5.1251817408691780e-01 1.6715460463364334e-01 5.5831293675959504e-01  5.0774086669057561e-01 1.6341907181642676e-01 5.3811137983817603e-01  4.9737313678227807e-01 1.6280465068496636e-01 4.8802797149867289e-01  4.9250472179699778e-01 1.6786141213925765e-01 4.6049378630306120e-01  4.8928805665933778e-01 1.7452678851289569e-01 4.4009204752429310e-01  4.8857453348801094e-01 1.7688941862295729e-01 4.3503861231737734e-01  4.8706677901514728e-01 1.8331888692784762e-01 4.2352224716647630e-01  4.8628790446073555e-01 1.8781384000239190e-01 4.1689427098048282e-01  4.8622770739622667e-01 1.8827434391751383e-01 4.1632115678971543e-01  4.8624557432113041e-01 1.8813199007158202e-01 4.1649416577855364e-01  4.8622977676398699e-01 1.8823834965853584e-01 4.1635097343473637e-01  4.8601290633600458e-01 1.9004357536120137e-01 4.1420760591977462e-01  4.8583152622339548e-01 1.9175480441811837e-01 4.1230778376578919e-01  4.8585470325805713e-01 1.9150646995424941e-01 4.1256556662771698e-01  4.8582657565813192e-01 1.9180786816410736e-01 4.1225269017874167e-01  4.8582563873881290e-01 1.9181980336938589e-01 4.1224135166109793e-01  4.8582159256831853e-01 1.9186498782700756e-01 4.1219543376704876e-01  4.8582160220601628e-01 1.9186489390844796e-01 4.1219553660561509e-01  4.8582341002287988e-01 1.9184663776757790e-01 4.1221513095851614e-01  4.8581853283312393e-01 1.9191068699618594e-01 4.1215519956032509e-01  4.8581589055475349e-01 1.9196117222407463e-01 4.1211519447057265e-01  4.8581414015000568e-01 1.9199557554755534e-01 4.1208823133359435e-01  4.8581385832472535e-01 1.9200256693941556e-01 4.1208319719652386e-01  4.8581388327277020e-01 1.9200262583755204e-01 4.1208331972122036e-01  4.8581606849283254e-01 1.9196380704022684e-01 4.1211501212214535e-01  4.8582070959960222e-01 1.9189539310258250e-01 4.1217561090351351e-01  4.8586986052262771e-01 1.9133020284536964e-01 4.1274062281074697e-01  4.8590457802746201e-01 1.9099293515115301e-01 4.1310939780643235e-01  4.8592518476495133e-01 1.9079444651182137e-01 4.1332736488469313e-01  4.8603423396568118e-01 1.8983846196416956e-01 4.1443261960294209e-01  4.8603346453664020e-01 1.8984851549166004e-01 4.1442314201496572e-01  4.8596218940400804e-01 1.9046520815230514e-01 4.1370503943425596e-01  4.8598690822959856e-01 1.9025215947771382e-01 4.1395372422436938e-01  4.8612694762925840e-01 1.8911660972390112e-01 4.1532453299347444e-01  4.8646687404385042e-01 1.8672820179258065e-01 4.1845101120449596e-01  4.8710522106866166e-01 1.8289714172117572e-01 4.2395171791237646e-01  4.8731247120211479e-01 1.8190882339902675e-01 4.2559508049395867e-01  4.8811312203714075e-01 1.7836332697573395e-01 4.3177666175538915e-01  4.8889259477604541e-01 1.7533228998062947e-01 4.3753952943039470e-01  4.8966604159683991e-01 1.7295916067783082e-01 4.4289175534468195e-01  4.9069347624632031e-01 1.7028940056268102e-01 4.4971021548155582e-01  4.9152401183544681e-01 1.6854008988746838e-01 4.5497661088804248e-01  4.9209892251808990e-01 1.6745939253795000e-01 4.5854066315331682e-01  4.9265154250129389e-01 1.6659535237543033e-01 4.6186613367619644e-01  4.9366564895508680e-01 1.6530634551677428e-01 4.6779563044725331e-01  4.9621463397354226e-01 1.6361429595102314e-01 4.8172364878336643e-01  5.0242485676692528e-01 1.6194047827857047e-01 5.1348993209025062e-01  5.0356386318045876e-01 1.6192513327870864e-01 5.1903472801709416e-01  5.0831365886049773e-01 1.6420961794063607e-01 5.4045090602507018e-01  5.1749758054568618e-01 1.7280351801989860e-01 5.7769554499947695e-01  5.1891610647691166e-01 1.7452964307758984e-01 5.8300619062147918e-01  5.1991856168832584e-01 1.7604916698728076e-01 5.8657549726941283e-01  5.2329687516243395e-01 1.8139581948132949e-01 5.9821189670634789e-01  5.2761002247907329e-01 1.8871777693906877e-01 6.1231476820941899e-01  5.3715271990318425e-01 2.0891780802267707e-01 6.3900270911611678e-01  5.4197465822330881e-01 2.2077658475420275e-01 6.5033427833547441e-01  5.4330626881531996e-01 2.2421367816675719e-01 6.5322292273174609e-01  5.4411029976329583e-01 2.2640121640735525e-01 6.5486465232308622e-01  5.4558425566414315e-01 2.3055049638356825e-01 6.5774974313262635e-01  5.4521979633150264e-01 2.2946694559951128e-01 6.5707236309540495e-01  5.4771731251418398e-01 2.3689638510698174e-01 6.6161174405499723e-01  5.5183826630439237e-01 2.5030543531647081e-01 6.6793701092713520e-01  5.5231502994963411e-01 2.5189496066922618e-01 6.6859505262146735e-01  5.4887782136141061e-01 2.4064176407010116e-01 6.6348578352881848e-01  5.5405003214280835e-01 2.5821526909142467e-01 6.7065803092778564e-01  5.5565724690540419e-01 2.6416524543231018e-01 6.7237882092519474e-01  5.5620804474159136e-01 2.6623952071632034e-01 6.7292295612717956e-01  5.5683774205777226e-01 2.6865490248881141e-01 6.7349699902426152e-01  5.5691728976038457e-01 2.6896271361319962e-01 6.7356692979122756e-01  5.5696116961814057e-01 2.6913427238540227e-01 6.7360449928148225e-01  5.5694716254161203e-01 2.6907957271725874e-01 6.7359248838898100e-01  5.5693126405158444e-01 2.6901738572452888e-01 6.7357889168402796e-01  5.5688174787308564e-01 2.6882396918005963e-01 6.7353628916630992e-01  5.5681815818442559e-01 2.6857586741060308e-01 6.7348123182013508e-01  5.5673605555030503e-01 2.6825570764052620e-01 6.7340972388393716e-01  5.5663989892310295e-01 2.6788104306062821e-01 6.7332532513480592e-01  5.5653213876845808e-01 2.6746162067644486e-01 6.7322988257664584e-01  5.5641612956484965e-01 2.6701062296659045e-01 6.7312609417148206e-01  5.5629176485443377e-01 2.6652804857951906e-01 6.7301352104557477e-01  5.5616166134329981e-01 2.6602419765968366e-01 6.7289432538073846e-01  5.5602793265018735e-01 2.6550744596428816e-01 6.7277022552612598e-01  5.5588840284117258e-01 2.6496993058100859e-01 6.7263886503836423e-01  5.5560557404182231e-01 2.6388535310483480e-01 6.7236691443100560e-01  5.5547209348231141e-01 2.6337597693216203e-01 6.7223584654809820e-01  5.5533735306281484e-01 2.6286390674689925e-01 6.7210155233025171e-01  5.5520119928628930e-01 2.6234864292589882e-01 6.7196383742147359e-01  5.5506445955925932e-01 2.6183338684765844e-01 6.7182347992409641e-01  5.5492811372795903e-01 2.6132182369262769e-01 6.7168151715823288e-01  5.5479174956073785e-01 2.6081261531462929e-01 6.7153745104237039e-01  5.5465772443059158e-01 2.6031450749298618e-01 6.7139385871974588e-01  5.5452968535395042e-01 2.5984091024637052e-01 6.7125481068635451e-01  5.5441239101379203e-01 2.5940915242494300e-01 6.7112579739760558e-01  5.5431569603874564e-01 2.5905496030078612e-01 6.7101816262162217e-01  5.5420109305495813e-01 2.5864010806027382e-01 6.7088748968301160e-01  5.5406655551743145e-01 2.5815756145123669e-01 6.7073087191889913e-01  5.5386155364308809e-01 2.5742488372805128e-01 6.7048913847043556e-01  5.5313112852260038e-01 2.5483223943986671e-01 6.6960325580860303e-01  5.5275401057611584e-01 2.5350595836799106e-01 6.6912981390529047e-01  5.5237885083841998e-01 2.5219691279256412e-01 6.6864640444355594e-01  5.5199910831274035e-01 2.5088281864142187e-01 6.6814442719117784e-01  5.5161381614779015e-01 2.4956096536094455e-01 6.6762214388612506e-01  5.5122369919605974e-01 2.4823437077432675e-01 6.6708011914022147e-01  5.5083042623295986e-01 2.4690912504671525e-01 6.6652034045342856e-01  5.5043591782567147e-01 2.4559183753614539e-01 6.6594554333753908e-01  5.5004347779594487e-01 2.4429376588501808e-01 6.6536044942905059e-01  5.4965452414848948e-01 2.4301972886200307e-01 6.6476746481513793e-01  5.4927654960709438e-01 2.4179342451789082e-01 6.6417899929446256e-01  5.4891796493490930e-01 2.4064142332552291e-01 6.6360936300058659e-01  5.4831091560915290e-01 2.3872290163414633e-01 6.6261608980168774e-01  5.4794315866832655e-01 2.3757918450023660e-01 6.6199717963324634e-01  5.4753998607384524e-01 2.3633708149984703e-01 6.6130621731027439e-01  5.4711479017629316e-01 2.3503985051356202e-01 6.6056374008329433e-01  5.4667563447924117e-01 2.3371275841615946e-01 6.5978226820281261e-01  5.4622912906731835e-01 2.3237540714311522e-01 6.5897302498998411e-01  5.4577500313325944e-01 2.3102632463107417e-01 6.5813536344952372e-01  5.4491587645944284e-01 2.2848570206433300e-01 6.5651950775580492e-01  5.4465434330517115e-01 2.2771038059868939e-01 6.5602082282637075e-01  5.4448305290161081e-01 2.2719703137779412e-01 6.5569374772818922e-01  5.4437172426398017e-01 2.2685835139488397e-01 6.5548170620895629e-01  5.4431082741597081e-01 2.2666624090481455e-01 6.5536748869373040e-01  5.4428602385604352e-01 2.2658051034711810e-01 6.5532320850654191e-01  5.4428346619963774e-01 2.2656288107116065e-01 6.5532137933626344e-01  5.4427186037294428e-01 2.2653161938321875e-01 6.5529781579848234e-01  5.4421042355828941e-01 2.2637617963746262e-01 6.5516982391596468e-01  5.4408376213504528e-01 2.2605228558525822e-01 6.5490629404897682e-01  5.4387877302382726e-01 2.2552678491597228e-01 6.5447823168888963e-01  5.4357632018889590e-01 2.2475204419224087e-01 6.5384189605297305e-01  5.4315864206979036e-01 2.2368672027686928e-01 6.5295284305582135e-01  5.4260274651504414e-01 2.2228040687774045e-01 6.5174946814709789e-01  5.4186652332696261e-01 2.2043889610483466e-01 6.5011990486231785e-01  5.4084107571635553e-01 2.1791059481063899e-01 6.4778495519135859e-01  5.3699461567594398e-01 2.0869948343491232e-01 6.3854496407704275e-01  5.3551674631112312e-01 2.0528863881531545e-01 6.3479297042597194e-01  5.3424832867613326e-01 2.0244342926328571e-01 6.3145927081663478e-01  5.3317403431815313e-01 2.0010037198129399e-01 6.2855334756004488e-01  5.3231755668337477e-01 1.9828073901880197e-01 6.2618269741756760e-01  5.3149490962463319e-01 1.9661426877348492e-01 6.2383006233835159e-01  5.3082480055797898e-01 1.9531896982399208e-01 6.2185329117244104e-01  5.2982142061240278e-01 1.9342070569485534e-01 6.1883921989906998e-01  5.2602978957321678e-01 1.8653142054461305e-01 6.0704029460777009e-01  5.2437510859881797e-01 1.8368432234337548e-01 6.0166798761608786e-01  5.2289513947466604e-01 1.8124425581215808e-01 5.9672076414458253e-01  5.2151034895732296e-01 1.7905952362053809e-01 5.9196663260674731e-01  5.2018659283021074e-01 1.7706423119058318e-01 5.8730762643786349e-01  5.1889582535562417e-01 1.7520563803624317e-01 5.8265920484121214e-01  5.1759546489044150e-01 1.7341712878752044e-01 5.7787396852184703e-01  5.1482670790719554e-01 1.6984733129117779e-01 5.6738774420382654e-01  5.1394198138375202e-01 1.6877326810405890e-01 5.6395327764089553e-01  5.1327595932870562e-01 1.6799495065382897e-01 5.6133396452360518e-01  5.1279005432698543e-01 1.6744818517586993e-01 5.5940290254106750e-01  5.1228455774612824e-01 1.6692328884258537e-01 5.5736346182576113e-01  5.1190690736256395e-01 1.6656653117832493e-01 5.5581732677294615e-01  5.1145133934032505e-01 1.6615462426257577e-01 5.5393837664767953e-01  5.1094348919583221e-01 1.6571556275632635e-01 5.5182737919035285e-01  5.1040847968645398e-01 1.6527541959107542e-01 5.4958488792923410e-01  5.0985664981690626e-01 1.6484458569686952e-01 5.4725183924569876e-01  5.0929862466617137e-01 1.6443279866947191e-01 5.4487169216842390e-01  5.0874639130032095e-01 1.6404978590802313e-01 5.4249521395413014e-01  5.0821461871205442e-01 1.6370475920302704e-01 5.4018642795994865e-01  5.0721492176375149e-01 1.6313163056425706e-01 5.3578371693704352e-01  5.0661864232847820e-01 1.6283763099836288e-01 5.3311810122300363e-01  5.0599232204891786e-01 1.6256223113008475e-01 5.3028994655451611e-01  5.0534453193137641e-01 1.6231405283336398e-01 5.2733321554065538e-01  5.0468331069880157e-01 1.6209872870279801e-01 5.2428242665752056e-01  5.0401415997588150e-01 1.6192148254716532e-01 5.2116023934868128e-01  5.0333968840666488e-01 1.6178565116593857e-01 5.1797677480060667e-01  5.0266310159794891e-01 1.6169422774604739e-01 5.1474564145554957e-01  5.0198775584167266e-01 1.6164949349555310e-01 5.1148192925816671e-01  5.0131435648000255e-01 1.6165382034055606e-01 5.0818764077202161e-01  5.0064459772177239e-01 1.6170856297342678e-01 5.0487060307828402e-01  4.9998055207742914e-01 1.6181486359775002e-01 5.0154076394150793e-01  4.9932070625570146e-01 1.6197541049174818e-01 4.9818923294285222e-01  4.9866914470631651e-01 1.6219245684481562e-01 4.9483502363497783e-01  4.9802109992851273e-01 1.6246775482751938e-01 4.9145414220807210e-01  4.9677258037656669e-01 1.6317669821347655e-01 4.8480879793526432e-01  4.9618763341383842e-01 1.6359895808455785e-01 4.8163019416450487e-01  4.9561171706374746e-01 1.6407459617610323e-01 4.7845811265581112e-01  4.9504018910725062e-01 1.6461421086294900e-01 4.7526267412287798e-01  4.9446955589965663e-01 1.6522072373324240e-01 4.7202479800914132e-01  4.9388745332335759e-01 1.6591371888316536e-01 4.6867009108688601e-01  4.9326580959734123e-01 1.6674032257054369e-01 4.6502760702770563e-01  4.9178435325184738e-01 1.6903718607436882e-01 4.5612675679133985e-01  4.9127001593375291e-01 1.6995648804708721e-01 4.5295604933743405e-01  4.9084505768015102e-01 1.7078209312698964e-01 4.5029319191137884e-01  4.9047850423938549e-01 1.7155111630227138e-01 4.4795998573875606e-01  4.9015700220137498e-01 1.7227490966660280e-01 4.4588286305360281e-01  4.8987516852272178e-01 1.7295279553630327e-01 4.4403564965745923e-01  4.8963126211682018e-01 1.7357677695203419e-01 4.4241480297487007e-01  4.8942857490621589e-01 1.7412565023329912e-01 4.4105010511524084e-01  4.8917759767486313e-01 1.7486457825330673e-01 4.3932596052149786e-01  4.8901663638051812e-01 1.7537768334640644e-01 4.3819754176112730e-01  4.8882355795069238e-01 1.7602127749335597e-01 4.3682763857913465e-01  4.8831005308056347e-01 1.7785612894085928e-01 4.3311250096969123e-01  4.8809755399565807e-01 1.7867151519615812e-01 4.3154233602091990e-01  4.8790835930752741e-01 1.7943318915990111e-01 4.3012346374860311e-01  4.8773344861771956e-01 1.8017056939230749e-01 4.2879230961628007e-01  4.8756862286728458e-01 1.8089804035791648e-01 4.2751893624733739e-01  4.8741003917827702e-01 1.8162947015802358e-01 4.2627543465597417e-01  4.8725180559124437e-01 1.8239096267914720e-01 4.2501630275357111e-01  4.8689770164777257e-01 1.8420159275603401e-01 4.2213691099576534e-01  4.8678169888375183e-01 1.8482949078568520e-01 4.2117352941450170e-01  4.8668915159267673e-01 1.8534688444655431e-01 4.2039541927123719e-01  4.8661229735327816e-01 1.8578935801426388e-01 4.1974187582196165e-01  4.8654738576150935e-01 1.8617309929861914e-01 4.1918415654676883e-01  4.8649217074444595e-01 1.8650730983606323e-01 4.1870532125486387e-01  4.8644527228018325e-01 1.8679720448409304e-01 4.1829520055542352e-01  4.8640572384189890e-01 1.8704620781293763e-01 4.1794679159270709e-01  4.8637268794191685e-01 1.8725749657477625e-01 4.1765390216548132e-01  4.8634565864381585e-01 1.8743266875970324e-01 4.1741296974803876e-01  4.8632413692601961e-01 1.8757364908694443e-01 4.1722028408563849e-01  4.8630786945891985e-01 1.8768109500089672e-01 4.1707414021509176e-01  4.8629658780560270e-01 1.8775603785420006e-01 4.1697254429280817e-01  4.8628999099462422e-01 1.8780001605643862e-01 4.1691304774160926e-01  4.8628724028332776e-01 1.8781913901443650e-01 4.1688784073444046e-01  4.8628451713686199e-01 1.8783992120109452e-01 4.1686195148174088e-01  4.8627949716749319e-01 1.8787793513084905e-01 4.1681437149338685e-01  4.8627211260820080e-01 1.8793372899608235e-01 4.1674443485890594e-01  4.8626166519026648e-01 1.8801231192711637e-01 4.1664565289432037e-01  4.8623588421830743e-01 1.8820570611757151e-01 4.1640209994504540e-01  4.8623638094113719e-01 1.8819713109295377e-01 4.1640922538495667e-01  4.8623401456415427e-01 1.8821127573361565e-01 4.1638866867806684e-01  4.8623186595380835e-01 1.8822490285403579e-01 4.1636960792663008e-01  4.8623045038919416e-01 1.8823400677925756e-01 4.1635698572522911e-01  4.8623058645322154e-01 1.8823312957832161e-01 4.1635820011290409e-01  4.8623253091712804e-01 1.8822058177085263e-01 4.1637555905354640e-01  4.8623611044417286e-01 1.8819717807830574e-01 4.1640766048147299e-01  4.8620849983581338e-01 1.8842677784543452e-01 4.1613540016522660e-01  4.8618983642146302e-01 1.8857450914790488e-01 4.1595504218527857e-01  4.8617064933195164e-01 1.8872725199264731e-01 4.1576912442298325e-01  4.8615090543646466e-01 1.8888581648054958e-01 4.1557704426781589e-01  4.8613062483782538e-01 1.8905040868066278e-01 4.1537880458605420e-01  4.8610985768820525e-01 1.8922089040379114e-01 4.1517475394759634e-01  4.8608850240270718e-01 1.8939834951004669e-01 4.1496375812423997e-01  4.8606623332153731e-01 1.8958573097078410e-01 4.1474246947623450e-01  4.8604223973524041e-01 1.8979024873386671e-01 4.1450262013261513e-01  4.8598454649132039e-01 1.9029170428127878e-01 4.1392064809419343e-01  4.8596354971604949e-01 1.9047799615100627e-01 4.1370680981336083e-01  4.8594575051968381e-01 1.9063811591173388e-01 4.1352436973470680e-01  4.8593029111085162e-01 1.9077915161467046e-01 4.1336487647461512e-01  4.8591663688488540e-01 1.9090543088875850e-01 4.1322311071949192e-01  4.8590455572608549e-01 1.9101868645403294e-01 4.1309688481925433e-01  4.8589385849083822e-01 1.9112030836448321e-01 4.1298442628417376e-01  4.8588441296607321e-01 1.9121121304477412e-01 4.1288452430577477e-01  4.8587612059925306e-01 1.9129203836725228e-01 4.1279629904786014e-01  4.8586894031649164e-01 1.9136290300751810e-01 4.1271945985265646e-01  4.8586284999934054e-01 1.9142374640539986e-01 4.1265391367958443e-01  4.8585791758761709e-01 1.9147360963753773e-01 4.1260053474757769e-01  4.8585167140664387e-01 1.9153802786628837e-01 4.1253230453463785e-01  4.8584772654210684e-01 1.9157962259985467e-01 4.1248876179884342e-01  4.8584333250211958e-01 1.9162654603062543e-01 4.1243996803679633e-01  4.8583837507783195e-01 1.9168012519067876e-01 4.1238460174310804e-01  4.8582812258683011e-01 1.9179154517526611e-01 4.1226978236879414e-01  4.8582707736364511e-01 1.9180265390169776e-01 4.1225819552798659e-01  4.8582669548445240e-01 1.9180663463629313e-01 4.1225399941879692e-01  4.8582668779540306e-01 1.9180671459767853e-01 4.1225391501948905e-01  4.8582691068173195e-01 1.9180446254701800e-01 4.1225632988548555e-01  4.8582703619282652e-01 1.9180340957351755e-01 4.1225758622708425e-01  4.8582667279499198e-01 1.9180785580472087e-01 4.1225327656656763e-01  4.8582424529863905e-01 1.9183564888081397e-01 4.1222540345814801e-01  4.8582312517886084e-01 1.9184821840233920e-01 4.1221266280027463e-01  4.8582229642770530e-01 1.9185734817388944e-01 4.1220331699803364e-01  4.8582177738908638e-01 1.9186298975583113e-01 4.1219749999389610e-01  4.8582160826070037e-01 1.9186482376118494e-01 4.1219560653478687e-01  4.8582173475852963e-01 1.9186348213145241e-01 4.1219700835423762e-01  4.8582209524905784e-01 1.9185966537097560e-01 4.1220100001561738e-01  4.8582265458090490e-01 1.9185390594186574e-01 4.1220711556503836e-01  4.8582225567656268e-01 1.9186205815746712e-01 4.1220082272401459e-01  4.8582114539006854e-01 1.9187635712120282e-01 4.1218731436535438e-01  4.8582017557940005e-01 1.9188888705830004e-01 4.1217549540096360e-01  4.8581938926875695e-01 1.9189918271431960e-01 4.1216584718485022e-01  4.8581881865522619e-01 1.9190678330437788e-01 4.1215878376786397e-01  4.8581835287484637e-01 1.9191343907951094e-01 4.1215280248549557e-01  4.8581810810082926e-01 1.9191747712850282e-01 4.1214940143522694e-01  4.8581784124