<?xml version="1.0"?>
<VTKFile type="UnstructuredGrid"  version="0.1"  >
<UnstructuredGrid>
<Piece  NumberOfPoints="7288" NumberOfCells="14083">
<Points>
<DataArray  type="Float64"  NumberOfComponents="3"  format="ascii">239.8 188 0  250.2 180 0  258.2 172.4 0  257 169.4 0  259.9 157.4 0  258.7 150.3 0  261 143.5 0  251.7 144.4 0  250 138.7 0  247 138.1 0  245.2 130.8 0  247.3 126.4 0  242.7 118.6 0  231.2 107.7 0  226 102.4 0  226.5 93.90000000000001 0  224.5 91.19999999999999 0  224.5 84.09999999999999 0  234.5 73.80000000000001 0  228.4 68.90000000000001 0  230 70 0  233.4 68 0  222.7 61.5 0  220.6 45.5 0  223.4 49.40000000000001 0  224 47 0  221.8 43.09999999999999 0  221 38.40000000000001 0  219.5 38.5 0  219.4 41.69999999999999 0  217.1 36.90000000000001 0  209.7 36 0  209.5 31.69999999999999 0  205.1 29.90000000000001 0  201.5 30.40000000000001 0  199.2 38.69999999999999 0  201.8 41.40000000000001 0  194.8 53.80000000000001 0  196.1 57.69999999999999 0  193 59 0  191.4 66.09999999999999 0  193.5 66.5 0  194.1 64.40000000000001 0  195.6 64.69999999999999 0  195.4 72.40000000000001 0  199.5 77.30000000000001 0  197.7 86.90000000000001 0  200.6 87.5 0  201.5 91 0  198 94.80000000000001 0  198.6 100 0  197.3 105.4 0  198 109.5 0  197 112.7 0  198.3 116.1 0  201.3 122 0  207.2 121 0  208.1 126.7 0  205.6 127.9 0  209.1 134.9 0  210.9 144.4 0  210.1 147.9 0  213 148.4 0  215.4 149.3 0  215.1 152.8 0  219.9 159.7 0  220.3 163.2 0  218.7 164.9 0  219.9 166.7 0  221.9 169.7 0  220 170.3 0  224.9 174.7 0  229.8 177.4 0  229.7 181 0  228 172.9 0  239 178 0  240.4 180 0  239 181.5 0  241.2 185.9 0  242.95 187.99 0  240.5875 187.9975 0  241.375 187.995 0  242.1625 187.9925 0  243.6090909090879 187.2636363636397 0  244.2681818181765 186.5372727272785 0  244.9272727272692 185.810909090913 0  245.5863636363531 185.0845454545571 0  246.245454545445 184.3581818181923 0  246.9045454545351 183.6318181818295 0  247.5636363636303 182.9054545454612 0  248.2227272727197 182.1790909090992 0  248.8818181818179 181.4527272727275 0  249.5409090909066 180.7263636363664 0  250.8666666666961 179.3666666666387 0  251.5333333334033 178.7333333332668 0  252.2000000000994 178.0999999999055 0  252.8666666668011 177.466666666539 0  253.5333333335083 176.8333333331671 0  254.2000000002044 176.1999999998058 0  254.8666666669005 175.5666666664445 0  255.5333333336077 174.9333333330727 0  256.2000000002685 174.2999999997449 0  256.8666666668457 173.6666666664966 0  257.5333333334283 173.033333333243 0  257.9000000000077 171.6500000000191 0  257.6000000000015 170.9000000000038 0  257.2999999999954 170.1499999999885 0  257.2230769230778 168.4769230769195 0  257.4461538461543 167.5538461538442 0  257.6692307692309 166.6307692307688 0  257.8923076923074 165.7076923076935 0  258.115384615384 164.7846153846181 0  258.3384615384605 163.8615384615427 0  258.5615384615395 162.9384615384572 0  258.784615384616 162.0153846153819 0  259.0076923076926 161.0923076923065 0  259.2307692307691 160.1692307692311 0  259.4538461538457 159.2461538461558 0  259.6769230769222 158.3230769230804 0  259.750000000001 156.512500000006 0  259.6000000000014 155.6250000000082 0  259.4500000000029 154.7375000000176 0  259.3000000000018 153.8500000000108 0  259.1500000000007 152.962500000004 0  259.0000000000004 152.0750000000026 0  258.849999999999 151.187499999994 0  258.9875000000052 149.4499999999846 0  259.275000000002 148.5999999999941 0  259.5624999999954 147.7500000000135 0  259.849999999995 146.900000000015 0  260.1374999999945 146.0500000000164 0  260.4249999999913 145.2000000000259 0  260.7124999999948 144.3500000000154 0  260.0700000000398 143.5899999999961 0  259.1400000000573 143.6799999999944 0  258.2100000000351 143.7699999999966 0  257.2800000000262 143.8599999999975 0  256.350000000011 143.9499999999989 0  255.4199999999881 144.0400000000011 0  254.4899999999726 144.1300000000026 0  253.5599999999944 144.2200000000005 0  252.6300000000009 144.3099999999999 0  251.4166666666658 143.4499999999971 0  251.1333333333388 142.5000000000182 0  250.8500000000015 141.5500000000051 0  250.5666666666612 140.5999999999818 0  250.2833333333342 139.6500000000029 0  249.2500000000005 138.5500000000001 0  248.5000000000011 138.4000000000002 0  247.7499999999995 138.2499999999999 0  246.7750000000005 137.1875000000023 0  246.5500000000021 136.2750000000085 0  246.3250000000036 135.3625000000147 0  246.1000000000042 134.450000000017 0  245.8750000000022 133.5375000000088 0  245.650000000003 132.6250000000124 0  245.4250000000046 131.7125000000187 0  245.619999999996 129.9200000000084 0  246.0399999999992 129.0400000000017 0  246.4599999999987 128.1600000000028 0  246.8800000000001 127.2799999999997 0  246.8399999999988 125.6199999999979 0  246.3799999999984 124.8399999999973 0  245.9199999999991 124.0599999999985 0  245.4600000000036 123.2800000000062 0  245.0000000000049 122.5000000000082 0  244.5400000000036 121.7200000000062 0  244.0800000000033 120.9400000000056 0  243.6200000000016 120.1600000000027 0  243.1600000000012 119.3800000000021 0  241.9812499999996 117.9187499999997 0  241.2625000000007 117.2375000000007 0  240.5437500000017 116.5562500000017 0  239.8250000000041 115.875000000004 0  239.1062500000066 115.1937500000063 0  238.3875000000076 114.5125000000072 0  237.6687500000087 113.8312500000082 0  236.9500000000083 113.1500000000079 0  236.231250000008 112.4687500000076 0  235.512500000009 111.7875000000085 0  234.7937500000045 111.1062500000043 0  234.0750000000042 110.4250000000039 0  233.3562500000066 109.7437500000062 0  232.6375000000021 109.062500000002 0  231.9187500000031 108.381250000003 0  230.5500000000004 107.0375000000004 0  229.9000000000021 106.3750000000021 0  229.2500000000038 105.7125000000039 0  228.6000000000041 105.0500000000042 0  227.9500000000018 104.3875000000018 0  227.2999999999952 103.7249999999951 0  226.6500000000024 103.0625000000024 0  226.0555555555555 101.4555555555556 0  226.1111111111111 100.5111111111111 0  226.1666666666667 99.56666666666668 0  226.2222222222222 98.62222222222223 0  226.2777777777778 97.67777777777778 0  226.3333333333333 96.73333333333335 0  226.3888888888889 95.78888888888889 0  226.4444444444445 94.84444444444446 0  226 93.22499999999999 0  225.5000000000026 92.55000000000358 0  225.0000000000026 91.87500000000358 0  224.5 90.31250000000068 0  224.5 89.4250000000097 0  224.5 88.53750000001317 0  224.5 87.65000000001388 0  224.5 86.76250000001457 0  224.5 85.87500000001248 0  224.5 84.9874999999993 0  225.1666666666659 83.41333333333409 0  225.8333333333319 82.72666666666818 0  226.4999999999978 82.04000000000228 0  227.1666666666649 81.35333333333514 0  227.8333333333301 80.66666666667 0  228.4999999999942 79.980000000006 0  229.1666666666601 79.2933333333401 0  229.8333333333316 78.60666666666847 0  230.4999999999975 77.92000000000257 0  231.1666666666644 77.23333333333572 0  231.8333333333295 76.54666666667057 0  232.4999999999972 75.86000000000287 0  233.1666666666681 75.17333333333181 0  233.8333333333368 74.48666666666306 0  233.7499999999995 73.16666666666629 0  233.0000000000018 72.53333333333488 0  232.2500000000014 71.90000000000116 0  231.5000000000009 71.26666666666743 0  230.7500000000005 70.63333333333372 0  229.233333333333 68.75000000000006 0  230.0666666666665 68.60000000000004 0  230.8999999999995 68.45000000000009 0  231.7333333333325 68.30000000000015 0  232.566666666667 68.14999999999995 0  232.5499999999897 68.50000000000607 0  231.7 69 0  230.8500000000103 69.49999999999393 0  227.8300000000008 68.16000000000106 0  227.2600000000064 67.42000000000837 0  226.6900000000077 66.68000000001001 0  226.1200000000024 65.94000000000314 0  225.5500000000108 65.20000000001409 0  224.9800000000098 64.46000000001268 0  224.4100000000007 63.72000000000098 0  223.8399999999971 62.97999999999621 0  223.2699999999993 62.23999999999915 0  222.753846153846 60.56923076923239 0  222.8076923076921 59.63846153846478 0  222.8615384615381 58.70769230769827 0  222.9153846153842 57.77692307693071 0  222.9692307692302 56.84615384616315 0  223.0230769230761 55.91538461539836 0  223.0769230769224 54.98461538462665 0  223.1307692307688 54.05384615385345 0  223.184615384615 53.12307692308312 0  223.2384615384611 52.19230769231556 0  223.2923076923071 51.26153846154906 0  223.3461538461533 50.33076923077847 0  222.8400000000024 48.62000000000327 0  222.2800000000047 47.84000000000661 0  221.7200000000005 47.06000000000071 0  221.1600000000003 46.28000000000039 0  221.4500000000116 45.87500000000512 0  222.3 46.25 0  223.1499999999884 46.62499999999488 0  223.5600000000055 46.22000000000981 0  223.1199999999987 45.43999999999767 0  222.6800000000061 44.66000000001075 0  222.2399999999969 43.8799999999944 0  221.6400000000004 42.16000000000253 0  221.4800000000009 41.22000000000548 0  221.3200000000014 40.28000000000801 0  221.1600000000009 39.34000000000556 0  220.25 38.45 0  219.4749999999999 39.30000000000165 0  219.45 40.09999999999999 0  219.425 40.90000000000112 0  219.0166666666641 40.89999999999463 0  218.6333333333375 40.10000000000875 0  218.2500000000016 39.30000000000339 0  217.8666666666635 38.49999999999351 0  217.483333333337 37.70000000000762 0  216.1750000000165 36.78750000000201 0  215.2500000000275 36.67500000000335 0  214.3250000000385 36.56250000000469 0  213.4000000000277 36.45000000000337 0  212.4750000000059 36.33750000000072 0  211.5499999999838 36.22499999999803 0  210.6249999999835 36.11249999999799 0  209.6600000000001 35.14000000000318 0  209.6200000000001 34.28000000000268 0  209.5800000000001 33.42000000000284 0  209.5399999999998 32.55999999999681 0  208.6200000000117 31.34000000000476 0  207.7400000000138 30.98000000000564 0  206.8600000000162 30.62000000000662 0  205.9800000000174 30.26000000000711 0  204.2000000000054 30.02499999999925 0  203.2999999999946 30.15000000000076 0  202.3999999999945 30.27500000000076 0  201.2444444444438 31.32222222222468 0  200.9888888888895 32.24444444
[...]
<PointData  Vectors="f_12"> 
<DataArray  type="Float64"  Name="f_12"  NumberOfComponents="3" format="ascii">4.9554156809608763e-01 1.6376905037661804e-01 4.7829705325183819e-01  4.9472187298668729e-01 1.6470638455009998e-01 4.7365263092499693e-01  4.9376497640326067e-01 1.6599152208713408e-01 4.6810001625944270e-01  4.9333105453259529e-01 1.6671580271305128e-01 4.6549823911139210e-01  4.9059373887911073e-01 1.7260120777256052e-01 4.4822629365734534e-01  4.8906412385536063e-01 1.7768919764546290e-01 4.3748602787234525e-01  4.8860057384054795e-01 1.7926711126496403e-01 4.3418233007584756e-01  4.8718580387995108e-01 1.9057837451057336e-01 4.2057969556189911e-01  4.8582142131585054e-01 2.0900959392971324e-01 4.0309714985195105e-01  4.8571105491539596e-01 2.2036476067612376e-01 3.9612583120447270e-01  4.8709718835293186e-01 2.6682280223064253e-01 3.7684194658181436e-01  4.8817189329173510e-01 2.8380624455894921e-01 3.7258801203268233e-01  4.9062625102996504e-01 3.0976849998441375e-01 3.7013444378683574e-01  4.9970817963968783e-01 3.7822774804006870e-01 3.7453773133878215e-01  5.0627678471581794e-01 4.1633812288147309e-01 3.8206311352978539e-01  5.1164477072005676e-01 4.4315895154656371e-01 3.8940412504586236e-01  5.1304646060490955e-01 4.4935183953910407e-01 3.9160884951334396e-01  5.1623489573683479e-01 4.6250584741343614e-01 3.9690694833870188e-01  5.1805757087494142e-01 4.6944146776054613e-01 4.0011330207100843e-01  5.1818646004289604e-01 4.6989639443333192e-01 4.0035907127409165e-01  5.1815039014411990e-01 4.6977091201901050e-01 4.0028898573176830e-01  5.1819129648046947e-01 4.6992041959461067e-01 4.0036301512077277e-01  5.1863137254750824e-01 4.7143779032531063e-01 4.0122296989159528e-01  5.1898347672444578e-01 4.7261603511789924e-01 4.0193217433588918e-01  5.1894366715305551e-01 4.7248911018161549e-01 4.0184724800326749e-01  5.1899268332015924e-01 4.7264590489269925e-01 4.0195137300188366e-01  5.1899360240658787e-01 4.7264810851280981e-01 4.0195393301963450e-01  5.1900074131845009e-01 4.7267082021354806e-01 4.0196918404198795e-01  5.1900071688288085e-01 4.7267073517898867e-01 4.0196913789503413e-01  5.1899648599128445e-01 4.7265625241705028e-01 4.0196094786928005e-01  5.1900124494976996e-01 4.7266725185502373e-01 4.0197454657618725e-01  5.1899990305561616e-01 4.7265550367449372e-01 4.0197787881551961e-01  5.1900069918620084e-01 4.7265411986919481e-01 4.0198282203456498e-01  5.1900054342204660e-01 4.7265256256063864e-01 4.0198336865609324e-01  5.1900029931445335e-01 4.7265158886119396e-01 4.0198301084389032e-01  5.1899679611282734e-01 4.7264290727075003e-01 4.0197349263915466e-01  5.1898896297351982e-01 4.7262079861455092e-01 4.0195443394652858e-01  5.1889175374648711e-01 4.7230822660803123e-01 4.0174915462417254e-01  5.1882219256730555e-01 4.7207570318452863e-01 4.0160911844857178e-01  5.1878018188007369e-01 4.7193464693935178e-01 4.0152496720072789e-01  5.1855237474296079e-01 4.7115464035531557e-01 4.0107873701545643e-01  5.1855366459008556e-01 4.7115841644993356e-01 4.0108173587146279e-01  5.1870349390809856e-01 4.7167307402488740e-01 4.0137422932765698e-01  5.1865164242689199e-01 4.7149494006056530e-01 4.0127309226117658e-01  5.1834987649224951e-01 4.7044202976535365e-01 4.0069421156910290e-01  5.1760407271515396e-01 4.6775345196858603e-01 3.9930650549682806e-01  5.1622817502040952e-01 4.6260423624031194e-01 3.9681230243925253e-01  5.1579759722036567e-01 4.6090353376107956e-01 3.9607193049762784e-01  5.1418839107407899e-01 4.5442883725944772e-01 3.9331251603191725e-01  5.1270789824846152e-01 4.4828193105269687e-01 3.9079897526947927e-01  5.1131561560676964e-01 4.4214027374428061e-01 3.8857297063849328e-01  5.0954674572797132e-01 4.3399884880825590e-01 3.8583730295152868e-01  5.0817751155613300e-01 4.2735159565507841e-01 3.8383801570150045e-01  5.0725662985519282e-01 4.2275262923783630e-01 3.8252796817592488e-01  5.0639292323986984e-01 4.1823560149311306e-01 3.8139000543809831e-01  5.0486504642336871e-01 4.0984311662324890e-01 3.7954588696106867e-01  5.0154778596689253e-01 3.8936329014651688e-01 3.7654950505583112e-01  4.9486849558043433e-01 3.4406089045262550e-01 3.7133723658927120e-01  4.9380401184404155e-01 3.3631258763180732e-01 3.7061169613538458e-01  4.9055478075840797e-01 3.0737025933905404e-01 3.7120458330958322e-01  4.8653917011975711e-01 2.6023505378374950e-01 3.7766524556154263e-01  4.8613209281330583e-01 2.5386417155607460e-01 3.7916335538529877e-01  4.8599848789614991e-01 2.4981662238919100e-01 3.8079520292343638e-01  4.8565018057015230e-01 2.3681563004614534e-01 3.8640795544378853e-01  4.8543249521378196e-01 2.2143115537713362e-01 3.9398814439048463e-01  4.8671080172138464e-01 1.9474808271305935e-01 4.1576122132196108e-01  4.8799498803418873e-01 1.8396419287050994e-01 4.2848325321218939e-01  4.8840678781638219e-01 1.8122757631019284e-01 4.3214169073722491e-01  4.8869643525302098e-01 1.7972113570140019e-01 4.3447908021008264e-01  4.8927576464075967e-01 1.7712481393230795e-01 4.3892062958108757e-01  4.8911305374387309e-01 1.7770192136855856e-01 4.3775600022475036e-01  4.9022379151335987e-01 1.7374852403043239e-01 4.4569500908723303e-01  4.9237951627883025e-01 1.6843968324937134e-01 4.5970229433047383e-01  4.9264002007393531e-01 1.6786202834734074e-01 4.6134687824804693e-01  4.9082335019069734e-01 1.7222873140094500e-01 4.4963174120368266e-01  4.9368718707100623e-01 1.6625892564500674e-01 4.6756747786782821e-01  4.9469077879549028e-01 1.6482825320432587e-01 4.7343308711359627e-01  4.9504299515173295e-01 1.6436263273913360e-01 4.7546564864739466e-01  4.9545502167728844e-01 1.6386659077768437e-01 4.7780889404342292e-01  4.9550770446964082e-01 1.6380608630698362e-01 4.7810664454349000e-01  4.9553720537444101e-01 1.6377387202879196e-01 4.7827249954780710e-01  4.9552780613686237e-01 1.6378419230254929e-01 4.7821963316014937e-01  4.9551711065077181e-01 1.6379584498477615e-01 4.7815951739956614e-01  4.9548385027061842e-01 1.6383235450957448e-01 4.7797238216910892e-01  4.9544118461387820e-01 1.6387948778495345e-01 4.7773210463093158e-01  4.9538609818422680e-01 1.6394054954427567e-01 4.7742165530794828e-01  4.9532158926003034e-01 1.6401239616854665e-01 4.7705775532734940e-01  4.9524931815786982e-01 1.6409337750329722e-01 4.7664959888207592e-01  4.9517152814349558e-01 1.6418111103165722e-01 4.7620971351581892e-01  4.9508822833608801e-01 1.6427598543451952e-01 4.7573790701833163e-01  4.9500118204137888e-01 1.6437614531446304e-01 4.7524403955494121e-01  4.9491182892538027e-01 1.6448012933001743e-01 4.7473613464907011e-01  4.9481884792506559e-01 1.6459000094891946e-01 4.7420640497143501e-01  4.9463114792630869e-01 1.6481681259672604e-01 4.7313341602161546e-01  4.9454298753509446e-01 1.6492584745651348e-01 4.7262767702175545e-01  4.9445440762948611e-01 1.6503752399749030e-01 4.7211815178020861e-01  4.9436533732341142e-01 1.6515201732241286e-01 4.7160439451818942e-01  4.9427634145492055e-01 1.6526868038198855e-01 4.7108962174807739e-01  4.9418806845291091e-01 1.6538666372248154e-01 4.7057760006241450e-01  4.9410031182841863e-01 1.6550648778953231e-01 4.7006703031526931e-01  4.9401458787329139e-01 1.6562605801267885e-01 4.6956676931001351e-01  4.9393320910879746e-01 1.6574204543476173e-01 4.6909039441186534e-01  4.9385914949776877e-01 1.6584996565236726e-01 4.6865549393779593e-01  4.9379851075769821e-01 1.6594035426257922e-01 4.6829824616300314e-01  4.9372782434285600e-01 1.6605161278341699e-01 4.6787852650342066e-01  4.9364589964270972e-01 1.6618596763178800e-01 4.6738895462607777e-01  4.9352165974913020e-01 1.6639285997645731e-01 4.6664440046925554e-01  4.9308312391652792e-01 1.6714518158539068e-01 4.6400075505970945e-01  4.9285962305756698e-01 1.6754423251634221e-01 4.6264261791924510e-01  4.9263980177503114e-01 1.6795037010544733e-01 4.6129766218189938e-01  4.9242001963339799e-01 1.6837134593051206e-01 4.5994310378956926e-01  4.9219992778286770e-01 1.6880896035791723e-01 4.5857620129252996e-01  4.9198011765763777e-01 1.6926300183490636e-01 4.5720013495965750e-01  4.9176167273172833e-01 1.6973202436425330e-01 4.5582129635898577e-01  4.9154573027754922e-01 1.7021397744152503e-01 4.5444674071019331e-01  4.9133419882640422e-01 1.7070516673931449e-01 4.5308836801123320e-01  4.9112792547261208e-01 1.7120408962954442e-01 4.5175153774848070e-01  4.9093070704944208e-01 1.7170048147455436e-01 4.5046161641435128e-01  4.9074679659229969e-01 1.7218278292278416e-01 4.4924711988155952e-01  4.9044451939661482e-01 1.7303150411528126e-01 4.4721817368438915e-01  4.9026675779440215e-01 1.7356480686363532e-01 4.4600503597220542e-01  4.9007528904901365e-01 1.7416183408781347e-01 4.4468488958927077e-01  4.8987705951927524e-01 1.7480494985413306e-01 4.4330322563178948e-01  4.8967602956277395e-01 1.7548283017115843e-01 4.4188656065698995e-01  4.8947512529675158e-01 1.7618506118192748e-01 4.4045564596384845e-01  4.8927403578709311e-01 1.7691153507427165e-01 4.3900882462126561e-01  4.8889651800177109e-01 1.7830079460115436e-01 4.3627300363401511e-01  4.8878074099669516e-01 1.7872289593600887e-01 4.3543403217434262e-01  4.8870300548332651e-01 1.7899428985455704e-01 4.3487609369260177e-01  4.8865081421985690e-01 1.7916605353642379e-01 4.3450637017976268e-01  4.8861999890506991e-01 1.7925349520908007e-01 4.3429491723822716e-01  4.8860497139424902e-01 1.7928193333073375e-01 4.3419885744271736e-01  4.8860050216123146e-01 1.7927639174348603e-01 4.3417728959681784e-01  4.8859644689370285e-01 1.7929832952829924e-01 4.3414418162619461e-01  4.8857834464474753e-01 1.7942425080601632e-01 4.3398230382727293e-01  4.8854003319314898e-01 1.7968113075509135e-01 4.3364427301828767e-01  4.8847789991903834e-01 1.8009701740884562e-01 4.3309575336710537e-01  4.8838692436847059e-01 1.8071413443765411e-01 4.3228704497308262e-01  4.8826344969010993e-01 1.8157585814478192e-01 4.3117454171974551e-01  4.8810365711612164e-01 1.8274239950320492e-01 4.2970398867968324e-01  4.8789959936396654e-01 1.8432114315624262e-01 4.2777281171085674e-01  4.8762795854131014e-01 1.8657832798838875e-01 4.2510915587484016e-01  4.8670490830679713e-01 1.9548460824680067e-01 4.1532801039969247e-01  4.8639671907446486e-01 1.9911139932836466e-01 4.1168283104193065e-01  4.8616322803014839e-01 2.0235498572910868e-01 4.0863672226674269e-01  4.8599213685740478e-01 2.0520933139080436e-01 4.0613279778960032e-01  4.8587613212113706e-01 2.0756355151452013e-01 4.0419813707666141e-01  4.8580098012193490e-01 2.0995664371308362e-01 4.0245809146666878e-01  4.8576747643749624e-01 2.1201025023330042e-01 4.0112880953262359e-01  4.8573495378602188e-01 2.1516361084986513e-01 3.9918439414189455e-01  4.8573416323438379e-01 2.2766321970264519e-01 3.9211746943066927e-01  4.8580417258229019e-01 2.3345656272133011e-01 3.8919448059020195e-01  4.8591492135487141e-01 2.3886984670984723e-01 3.8669208342322731e-01  4.8606436054445989e-01 2.4415303547568956e-01 3.8445938238658922e-01  4.8625185157190054e-01 2.4941383832325309e-01 3.8243204131756353e-01  4.8647739107718196e-01 2.5474434784127381e-01 3.8055662421812370e-01  4.8674666959516133e-01 2.6031259424037684e-01 3.7876449589993083e-01  4.8744283980679587e-01 2.7275512543720853e-01 3.7521341056978980e-01  4.8770027003570926e-01 2.7689874476085374e-01 3.7415074108383983e-01  4.8790988712844957e-01 2.8008810078929591e-01 3.7338816206218700e-01  4.8807380010710494e-01 2.8245845023432220e-01 3.7286190959347237e-01  4.8826683936336052e-01 2.8499465641010990e-01 3.7239166816304486e-01  4.8842912354229900e-01 2.8694145458743520e-01 3.7210506993697923e-01  4.8863443269589241e-01 2.8931992538958157e-01 3.7178992355976531e-01  4.8887372183389488e-01 2.9200569892140893e-01 3.7146976989393538e-01  4.8913735797847369e-01 2.9487338759102300e-01 3.7116631620135804e-01  4.8942122611433519e-01 2.9787207361749035e-01 3.7088671027338677e-01  4.8972059978164423e-01 3.0094693355909119e-01 3.7063767960753824e-01  4.9002948450205974e-01 3.0403286668191631e-01 3.7042590577456141e-01  4.9033918814404298e-01 3.0704631130050530e-01 3.7025543661846300e-01  4.9096012542730638e-01 3.1284022276178208e-01 3.7004340789979145e-01  4.9135501777576651e-01 3.1637737462343640e-01 3.6998444343743359e-01  4.9178695669734152e-01 3.2014990499341600e-01 3.6996738241115162e-01  4.9225248135779809e-01 3.2411473300152660e-01 3.6999718598870146e-01  4.9274702137519921e-01 3.2822612681503982e-01 3.7007560611569534e-01  4.9326806639812681e-01 3.3245433814029773e-01 3.7020545393348925e-01  4.9381474155765825e-01 3.3678574638761460e-01 3.7038841740053469e-01  4.9438539469919390e-01 3.4120140242890334e-01 3.7062560785548659e-01  4.9497785685636903e-01 3.4567990318618402e-01 3.7091720663063826e-01  4.9559228656165799e-01 3.5021716830018129e-01 3.7126466211273601e-01  4.9622744453868062e-01 3.5480078561000283e-01 3.7166763952418463e-01  4.9688161327998331e-01 3.5941528646446608e-01 3.7212540156160756e-01  4.9755685478809503e-01 3.6407044009996942e-01 3.7264052208731718e-01  4.9825015934542849e-01 3.6873901748652443e-01 3.7321246192382762e-01  4.9896588339050513e-01 3.7345015580271584e-01 3.7384363757164352e-01  5.0042135899902052e-01 3.8271683264205481e-01 3.7524083208410891e-01  5.0114072948713573e-01 3.8714767158963864e-01 3.7598425746979058e-01  5.0187319406827569e-01 3.9156581173959160e-01 3.7677323779626476e-01  5.0262655180828653e-01 3.9600918129766277e-01 3.7761867398062743e-01  5.0340465686179692e-01 4.0050201102785093e-01 3.7852233334524521e-01  5.0422552911876706e-01 4.0514065199882177e-01 3.7950566270999969e-01  5.0513201742388358e-01 4.1014992851362470e-01 3.8062162982917552e-01  5.0739323678806147e-01 4.2223493294321718e-01 3.8350268666910869e-01  5.0821297954921629e-01 4.2647363583439202e-01 3.8458008031379021e-01  5.0890876983830335e-01 4.3000075530758292e-01 3.8551220029808320e-01  5.0952448481050394e-01 4.3306426357864297e-01 3.8635341178084276e-01  5.1007755590342796e-01 4.3576822158811584e-01 3.8712395406902450e-01  5.1057335475157739e-01 4.3815166079702911e-01 3.8782835295228951e-01  5.1101146189688185e-01 4.4022426064173986e-01 3.8846285042016693e-01  5.1138264926806887e-01 4.4195418857109275e-01 3.8901045752854629e-01  5.1185637551373642e-01 4.4411421122553302e-01 3.8972958629337140e-01  5.1216906139880880e-01 4.4551008940097320e-01 3.9021673034526949e-01  5.1254948020887980e-01 4.4718763017460422e-01 3.9081666149334454e-01  5.1358078204475766e-01 4.5164793317104363e-01 3.9246956919255505e-01  5.1401600259692237e-01 4.5349313196468544e-01 3.9317779157534005e-01  5.1440912389735027e-01 4.5513816348157810e-01 3.9382381679224104e-01  5.1477785483531524e-01 4.5666214153881679e-01 3.9443548619870322e-01  5.1513038438089465e-01 4.5810145883622155e-01 3.9502584373393207e-01  5.1547455086309368e-01 4.5949032803596102e-01 3.9560711118662306e-01  5.1582261190570178e-01 4.6087906628625142e-01 3.9619973555878041e-01  5.1661634732535966e-01 4.6399467312603215e-01 3.9756611265961816e-01  5.1688130075804706e-01 4.6501888993973300e-01 3.9802668761422283e-01  5.1709518211232652e-01 4.6583879496273978e-01 3.9840050169458191e-01  5.1727479332154369e-01 4.6652222131798193e-01 3.9871607079086940e-01  5.1742807083427611e-01 4.6710159137057988e-01 3.9898671998413920e-01  5.1755967192915953e-01 4.6759610535184309e-01 3.9922017070827259e-01  5.1767238728034359e-01 4.6801743834620974e-01 3.9942096439445846e-01  5.1776814072691801e-01 4.6837372392808446e-01 3.9959218168078053e-01  5.1784863032115946e-01 4.6867204096638831e-01 3.9973656787660039e-01  5.1791484477069405e-01 4.6891663890557744e-01 3.9985566634317732e-01  5.1796780400301323e-01 4.6911174761701013e-01 3.9995112937846461e-01  5.1800798954800409e-01 4.6925948986860339e-01 4.0002368472983224e-01  5.1803594960665811e-01 4.6936213703093932e-01 4.0007422086432598e-01  5.1805233785031579e-01 4.6942224771358765e-01 4.0010386025388234e-01  5.1805889152743334e-01 4.6944604209471924e-01 4.0011588862794961e-01  5.1806467651088306e-01 4.6946644857795483e-01 4.0012694499060253e-01  5.1807548413559923e-01 4.6950468881558438e-01 4.0014750872401644e-01  5.1809148606384958e-01 4.6956136901903744e-01 4.0017789826703559e-01  5.1811437560960816e-01 4.6964259710051759e-01 4.0022123082590938e-01  5.1817141701987757e-01 4.6984531305020383e-01 4.0032891500604079e-01  5.1817252774771172e-01 4.6985088231426464e-01 4.0032978310000622e-01  5.1817950940191349e-01 4.6987691651943170e-01 4.0034202178498235e-01  5.1818551802548363e-01 4.6989912026390374e-01 4.0035270410337792e-01  5.1818943316717903e-01 4.6991355345856967e-01 4.0035968907092012e-01  5.1818905699815621e-01 4.6991216730707502e-01 4.0035901758538556e-01  5.1818370454062768e-01 4.6989244700371774e-01 4.0034945895319918e-01  5.1817406757983075e-01 4.6985702384570605e-01 4.0033217781990155e-01  5.1822601725235218e-01 4.7003442110486326e-01 4.0043553621959510e-01  5.1826506867869981e-01 4.7017097537004521e-01 4.0051073054829978e-01  5.1830533958665459e-01 4.7031165947536707e-01 4.0058829377748945e-01  5.1834672137883375e-01 4.7045593039314643e-01 4.0066813354573372e-01  5.1838908676371975e-01 4.7060325208076076e-01 4.0075006697951454e-01  5.1843227292423455e-01 4.7075299856350145e-01 4.0083382028199138e-01  5.1847646157137195e-01 4.7090575456178879e-01 4.0091977370037729e-01  5.1852232041099411e-01 4.7106379582814695e-01 4.0100924148063755e-01  5.1857149128678282e-01 4.7123271411804746e-01 4.0110546061778607e-01  5.1868914737269556e-01 4.7163509344365534e-01 4.0133662889518629e-01  5.1873169248236539e-01 4.7177989484993899e-01 4.0142060575324745e-01  5.1876750716305209e-01 4.7190135893142371e-01 4.0149155995308383e-01  5.1879837578831089e-01 4.7200566577897757e-01 4.0155295954397863e-01  5.1882540751008588e-01 4.7209666729033417e-01 4.0160695379791639e-01  5.1884911286499236e-01 4.7217616820348368e-01 4.0165451134742980e-01  5.1886990578088554e-01 4.7224563237721567e-01 4.0169641573112275e-01  5.1888808523051089e-01 4.7230612650551651e-01 4.0173322547178947e-01  5.1890388136205223e-01 4.7235847865532754e-01 4.0176536480150188e-01  5.1891741276977033e-01 4.7240313969337666e-01 4.0179303491950463e-01  5.1892875819828832e-01 4.7244042468770481e-01 4.0181635778477964e-01  5.1893783018371209e-01 4.7247010240872417e-01 4.0183511261607446e-01  5.1894901023812701e-01 4.7250634570597067e-01 4.0185848821809356e-01  5.1895584688029583e-01 4.7252826289503191e-01 4.0187297927291454e-01  5.1896336070666738e-01 4.7255221442245715e-01 4.0188901435966401e-01  5.1897177600119271e-01 4.7257892228534981e-01 4.0190706509545837e-01  5.1898967272527319e-01 4.7263601579664632e-01 4.0194519620415126e-01  5.1899166733394042e-01 4.7264253286189606e-01 4.0194931744184775e-01  5.1899243476832690e-01 4.7264507497866332e-01 4.0195087427140153e-01  5.1899245033896768e-01 4.7264512665328501e-01 4.0195090577608056e-01  5.1899196868405417e-01 4.7264350221136586e-01 4.0194995269954198e-01  5.1899159857480137e-01 4.7264217451737855e-01 4.0194928607356528e-01  5.1899203142526407e-01 4.7264335011882436e-01 4.0195037778946585e-01  5.1899587812596082e-01 4.7265517455992073e-01 4.0195893940033856e-01  5.1899782194938637e-01 4.7266132636468849e-01 4.0196311883282559e-01  5.1899936341641617e-01 4.7266630588589703e-01 4.0196634909982693e-01  5.1900037456604931e-01 4.7266961434488292e-01 4.0196843305579261e-01  5.1900070730590586e-01 4.7267070584209608e-01 4.0196911650048261e-01  5.1900044279515123e-01 4.7266982423674375e-01 4.0196858473949287e-01  5.1899968689094733e-01 4.7266730289561321e-01 4.0196706667972970e-01  5.1899843342355179e-01 4.7266305406762266e-01 4.0196460554261837e-01  5.1899733285028105e-01 4.7265773031968111e-01 4.0196376569383679e-01  5.1899849702441869e-01 4.7266059041653508e-01 4.0196695207189165e-01  5.1899956010669446e-01 4.7266326265270242e-01 4.0196981139592131e-01  5.1900040313119988e-01 4.7266533542966466e-01 4.0197211710907171e-01  5.1900098521678628e-01 4.7266670462502375e-01 4.0197376047835354e-01  5.1900128750957963e-01 4.7266708053985967e-01 4.0197489175339074e-01  5.1900123706843315e-01 4.7266638041427511e-01 4.0197523141237490e-01  5.1900109560