<?xml version="1.0"?>
<VTKFile type="UnstructuredGrid"  version="0.1"  >
<UnstructuredGrid>
<Piece  NumberOfPoints="7288" NumberOfCells="14083">
<Points>
<DataArray  type="Float64"  NumberOfComponents="3"  format="ascii">239.8 188 0  250.2 180 0  258.2 172.4 0  257 169.4 0  259.9 157.4 0  258.7 150.3 0  261 143.5 0  251.7 144.4 0  250 138.7 0  247 138.1 0  245.2 130.8 0  247.3 126.4 0  242.7 118.6 0  231.2 107.7 0  226 102.4 0  226.5 93.90000000000001 0  224.5 91.19999999999999 0  224.5 84.09999999999999 0  234.5 73.80000000000001 0  228.4 68.90000000000001 0  230 70 0  233.4 68 0  222.7 61.5 0  220.6 45.5 0  223.4 49.40000000000001 0  224 47 0  221.8 43.09999999999999 0  221 38.40000000000001 0  219.5 38.5 0  219.4 41.69999999999999 0  217.1 36.90000000000001 0  209.7 36 0  209.5 31.69999999999999 0  205.1 29.90000000000001 0  201.5 30.40000000000001 0  199.2 38.69999999999999 0  201.8 41.40000000000001 0  194.8 53.80000000000001 0  196.1 57.69999999999999 0  193 59 0  191.4 66.09999999999999 0  193.5 66.5 0  194.1 64.40000000000001 0  195.6 64.69999999999999 0  195.4 72.40000000000001 0  199.5 77.30000000000001 0  197.7 86.90000000000001 0  200.6 87.5 0  201.5 91 0  198 94.80000000000001 0  198.6 100 0  197.3 105.4 0  198 109.5 0  197 112.7 0  198.3 116.1 0  201.3 122 0  207.2 121 0  208.1 126.7 0  205.6 127.9 0  209.1 134.9 0  210.9 144.4 0  210.1 147.9 0  213 148.4 0  215.4 149.3 0  215.1 152.8 0  219.9 159.7 0  220.3 163.2 0  218.7 164.9 0  219.9 166.7 0  221.9 169.7 0  220 170.3 0  224.9 174.7 0  229.8 177.4 0  229.7 181 0  228 172.9 0  239 178 0  240.4 180 0  239 181.5 0  241.2 185.9 0  242.95 187.99 0  240.5875 187.9975 0  241.375 187.995 0  242.1625 187.9925 0  243.6090909090879 187.2636363636397 0  244.2681818181765 186.5372727272785 0  244.9272727272692 185.810909090913 0  245.5863636363531 185.0845454545571 0  246.245454545445 184.3581818181923 0  246.9045454545351 183.6318181818295 0  247.5636363636303 182.9054545454612 0  248.2227272727197 182.1790909090992 0  248.8818181818179 181.4527272727275 0  249.5409090909066 180.7263636363664 0  250.8666666666961 179.3666666666387 0  251.5333333334033 178.7333333332668 0  252.2000000000994 178.0999999999055 0  252.8666666668011 177.466666666539 0  253.5333333335083 176.8333333331671 0  254.2000000002044 176.1999999998058 0  254.8666666669005 175.5666666664445 0  255.5333333336077 174.9333333330727 0  256.2000000002685 174.2999999997449 0  256.8666666668457 173.6666666664966 0  257.5333333334283 173.033333333243 0  257.9000000000077 171.6500000000191 0  257.6000000000015 170.9000000000038 0  257.2999999999954 170.1499999999885 0  257.2230769230778 168.4769230769195 0  257.4461538461543 167.5538461538442 0  257.6692307692309 166.6307692307688 0  257.8923076923074 165.7076923076935 0  258.115384615384 164.7846153846181 0  258.3384615384605 163.8615384615427 0  258.5615384615395 162.9384615384572 0  258.784615384616 162.0153846153819 0  259.0076923076926 161.0923076923065 0  259.2307692307691 160.1692307692311 0  259.4538461538457 159.2461538461558 0  259.6769230769222 158.3230769230804 0  259.750000000001 156.512500000006 0  259.6000000000014 155.6250000000082 0  259.4500000000029 154.7375000000176 0  259.3000000000018 153.8500000000108 0  259.1500000000007 152.962500000004 0  259.0000000000004 152.0750000000026 0  258.849999999999 151.187499999994 0  258.9875000000052 149.4499999999846 0  259.275000000002 148.5999999999941 0  259.5624999999954 147.7500000000135 0  259.849999999995 146.900000000015 0  260.1374999999945 146.0500000000164 0  260.4249999999913 145.2000000000259 0  260.7124999999948 144.3500000000154 0  260.0700000000398 143.5899999999961 0  259.1400000000573 143.6799999999944 0  258.2100000000351 143.7699999999966 0  257.2800000000262 143.8599999999975 0  256.350000000011 143.9499999999989 0  255.4199999999881 144.0400000000011 0  254.4899999999726 144.1300000000026 0  253.5599999999944 144.2200000000005 0  252.6300000000009 144.3099999999999 0  251.4166666666658 143.4499999999971 0  251.1333333333388 142.5000000000182 0  250.8500000000015 141.5500000000051 0  250.5666666666612 140.5999999999818 0  250.2833333333342 139.6500000000029 0  249.2500000000005 138.5500000000001 0  248.5000000000011 138.4000000000002 0  247.7499999999995 138.2499999999999 0  246.7750000000005 137.1875000000023 0  246.5500000000021 136.2750000000085 0  246.3250000000036 135.3625000000147 0  246.1000000000042 134.450000000017 0  245.8750000000022 133.5375000000088 0  245.650000000003 132.6250000000124 0  245.4250000000046 131.7125000000187 0  245.619999999996 129.9200000000084 0  246.0399999999992 129.0400000000017 0  246.4599999999987 128.1600000000028 0  246.8800000000001 127.2799999999997 0  246.8399999999988 125.6199999999979 0  246.3799999999984 124.8399999999973 0  245.9199999999991 124.0599999999985 0  245.4600000000036 123.2800000000062 0  245.0000000000049 122.5000000000082 0  244.5400000000036 121.7200000000062 0  244.0800000000033 120.9400000000056 0  243.6200000000016 120.1600000000027 0  243.1600000000012 119.3800000000021 0  241.9812499999996 117.9187499999997 0  241.2625000000007 117.2375000000007 0  240.5437500000017 116.5562500000017 0  239.8250000000041 115.875000000004 0  239.1062500000066 115.1937500000063 0  238.3875000000076 114.5125000000072 0  237.6687500000087 113.8312500000082 0  236.9500000000083 113.1500000000079 0  236.231250000008 112.4687500000076 0  235.512500000009 111.7875000000085 0  234.7937500000045 111.1062500000043 0  234.0750000000042 110.4250000000039 0  233.3562500000066 109.7437500000062 0  232.6375000000021 109.062500000002 0  231.9187500000031 108.381250000003 0  230.5500000000004 107.0375000000004 0  229.9000000000021 106.3750000000021 0  229.2500000000038 105.7125000000039 0  228.6000000000041 105.0500000000042 0  227.9500000000018 104.3875000000018 0  227.2999999999952 103.7249999999951 0  226.6500000000024 103.0625000000024 0  226.0555555555555 101.4555555555556 0  226.1111111111111 100.5111111111111 0  226.1666666666667 99.56666666666668 0  226.2222222222222 98.62222222222223 0  226.2777777777778 97.67777777777778 0  226.3333333333333 96.73333333333335 0  226.3888888888889 95.78888888888889 0  226.4444444444445 94.84444444444446 0  226 93.22499999999999 0  225.5000000000026 92.55000000000358 0  225.0000000000026 91.87500000000358 0  224.5 90.31250000000068 0  224.5 89.4250000000097 0  224.5 88.53750000001317 0  224.5 87.65000000001388 0  224.5 86.76250000001457 0  224.5 85.87500000001248 0  224.5 84.9874999999993 0  225.1666666666659 83.41333333333409 0  225.8333333333319 82.72666666666818 0  226.4999999999978 82.04000000000228 0  227.1666666666649 81.35333333333514 0  227.8333333333301 80.66666666667 0  228.4999999999942 79.980000000006 0  229.1666666666601 79.2933333333401 0  229.8333333333316 78.60666666666847 0  230.4999999999975 77.92000000000257 0  231.1666666666644 77.23333333333572 0  231.8333333333295 76.54666666667057 0  232.4999999999972 75.86000000000287 0  233.1666666666681 75.17333333333181 0  233.8333333333368 74.48666666666306 0  233.7499999999995 73.16666666666629 0  233.0000000000018 72.53333333333488 0  232.2500000000014 71.90000000000116 0  231.5000000000009 71.26666666666743 0  230.7500000000005 70.63333333333372 0  229.233333333333 68.75000000000006 0  230.0666666666665 68.60000000000004 0  230.8999999999995 68.45000000000009 0  231.7333333333325 68.30000000000015 0  232.566666666667 68.14999999999995 0  232.5499999999897 68.50000000000607 0  231.7 69 0  230.8500000000103 69.49999999999393 0  227.8300000000008 68.16000000000106 0  227.2600000000064 67.42000000000837 0  226.6900000000077 66.68000000001001 0  226.1200000000024 65.94000000000314 0  225.5500000000108 65.20000000001409 0  224.9800000000098 64.46000000001268 0  224.4100000000007 63.72000000000098 0  223.8399999999971 62.97999999999621 0  223.2699999999993 62.23999999999915 0  222.753846153846 60.56923076923239 0  222.8076923076921 59.63846153846478 0  222.8615384615381 58.70769230769827 0  222.9153846153842 57.77692307693071 0  222.9692307692302 56.84615384616315 0  223.0230769230761 55.91538461539836 0  223.0769230769224 54.98461538462665 0  223.1307692307688 54.05384615385345 0  223.184615384615 53.12307692308312 0  223.2384615384611 52.19230769231556 0  223.2923076923071 51.26153846154906 0  223.3461538461533 50.33076923077847 0  222.8400000000024 48.62000000000327 0  222.2800000000047 47.84000000000661 0  221.7200000000005 47.06000000000071 0  221.1600000000003 46.28000000000039 0  221.4500000000116 45.87500000000512 0  222.3 46.25 0  223.1499999999884 46.62499999999488 0  223.5600000000055 46.22000000000981 0  223.1199999999987 45.43999999999767 0  222.6800000000061 44.66000000001075 0  222.2399999999969 43.8799999999944 0  221.6400000000004 42.16000000000253 0  221.4800000000009 41.22000000000548 0  221.3200000000014 40.28000000000801 0  221.1600000000009 39.34000000000556 0  220.25 38.45 0  219.4749999999999 39.30000000000165 0  219.45 40.09999999999999 0  219.425 40.90000000000112 0  219.0166666666641 40.89999999999463 0  218.6333333333375 40.10000000000875 0  218.2500000000016 39.30000000000339 0  217.8666666666635 38.49999999999351 0  217.483333333337 37.70000000000762 0  216.1750000000165 36.78750000000201 0  215.2500000000275 36.67500000000335 0  214.3250000000385 36.56250000000469 0  213.4000000000277 36.45000000000337 0  212.4750000000059 36.33750000000072 0  211.5499999999838 36.22499999999803 0  210.6249999999835 36.11249999999799 0  209.6600000000001 35.14000000000318 0  209.6200000000001 34.28000000000268 0  209.5800000000001 33.42000000000284 0  209.5399999999998 32.55999999999681 0  208.6200000000117 31.34000000000476 0  207.7400000000138 30.98000000000564 0  206.8600000000162 30.62000000000662 0  205.9800000000174 30.26000000000711 0  204.2000000000054 30.02499999999925 0  203.2999999999946 30.15000000000076 0  202.3999999999945 30.27500000000076 0  201.2444444444438 31.32222222222468 0  200.9888888888895 32.24444444
[...]
<PointData  Vectors="f_12"> 
<DataArray  type="Float64"  Name="f_12"  NumberOfComponents="3" format="ascii">5.0607447032206176e-01 4.1564990042226907e-01 3.8182193501291389e-01  5.0708797619053259e-01 4.2078828361187653e-01 3.8326989369546066e-01  5.0830341880975582e-01 4.2677750356810751e-01 3.8505123484265064e-01  5.0887524156817210e-01 4.2947999021521710e-01 3.8593655843247265e-01  5.1279118638309973e-01 4.4707681021817919e-01 3.9217803913997290e-01  5.1538152718155605e-01 4.5765229617258785e-01 3.9659911129265818e-01  5.1619684266604959e-01 4.6095997689031953e-01 3.9794265730378620e-01  5.2008442562235591e-01 4.7396387163563403e-01 4.0571203557336177e-01  5.2571984492683055e-01 4.9101023449481407e-01 4.1710089773197578e-01  5.2864872704809107e-01 4.9830365511431474e-01 4.2347822949766961e-01  5.3900056004010377e-01 5.1891163602719836e-01 4.4703500868758883e-01  5.4230359252752403e-01 5.2366881780683749e-01 4.5498038392693957e-01  5.4686678349307871e-01 5.2741085457725323e-01 4.6732363210187089e-01  5.5779429605792419e-01 5.2564946351225017e-01 5.0214115585367403e-01  5.6380608967652768e-01 5.1762691094167845e-01 5.2517998294885060e-01  5.6829684415226545e-01 5.0771143336589419e-01 5.4477817195156519e-01  5.6941452453167929e-01 5.0416241695055430e-01 5.5040525754282432e-01  5.7195377443424045e-01 4.9438772877373538e-01 5.6438013562448874e-01  5.7339927627797327e-01 4.8747098212914258e-01 5.7327902030585021e-01  5.7354747484704993e-01 4.8654991025516098e-01 5.7435203345811292e-01  5.7350023116935167e-01 4.8685420569220283e-01 5.7400173134615073e-01  5.7352944887840174e-01 4.8670096420904152e-01 5.7419087754320530e-01  5.7412298178852594e-01 4.8274888901283081e-01 5.7868074042676321e-01  5.7473246855726590e-01 4.7828946354635665e-01 5.8357681577393183e-01  5.7462942692281438e-01 4.7909797847679625e-01 5.8270877854608083e-01  5.7475409614778805e-01 4.7811951187654211e-01 5.8375909987085228e-01  5.7476054790412257e-01 4.7806646742664988e-01 5.8381528625156631e-01  5.7478017987219976e-01 4.7790967242079269e-01 5.8398264274132727e-01  5.7478015180726705e-01 4.7790988397321393e-01 5.8398241330096101e-01  5.7477400517792443e-01 4.7795718804063314e-01 5.8393140368400398e-01  5.7481039825835711e-01 4.7765762745836016e-01 5.8424846161032129e-01  5.7485111195888994e-01 4.7731337239040295e-01 5.8461005982168479e-01  5.7487911543202797e-01 4.7707627805626757e-01 5.8485892028259812e-01  5.7488555703284572e-01 4.7702138003209960e-01 5.8491642848957093e-01  5.7488590699960151e-01 4.7701829791318223e-01 5.8491962914942908e-01  5.7485663395595299e-01 4.7726497763982917e-01 5.8466041184905959e-01  5.7481256249496027e-01 4.7763112223043819e-01 5.8427402250774862e-01  5.7454362167424311e-01 4.7977192275745806e-01 5.8198469441571132e-01  5.7442253736905091e-01 4.8067266024926825e-01 5.8100084181505396e-01  5.7435175557234985e-01 4.8119612221576635e-01 5.8042762325677943e-01  5.7404940259392512e-01 4.8329210864410982e-01 5.7808369608093457e-01  5.7405339288130242e-01 4.8325838727778481e-01 5.7811944619542077e-01  5.7424648108043352e-01 4.8193374604065886e-01 5.7960621108461918e-01  5.7418037122403454e-01 4.8238543530706812e-01 5.7909883981399202e-01  5.7383503983372719e-01 4.8462538103726815e-01 5.7653767775990694e-01  5.7310615384879360e-01 4.8880294393063828e-01 5.7153834843832430e-01  5.7184742681000345e-01 4.9517236834207190e-01 5.6350367656074185e-01  5.7147857326114049e-01 4.9670214378999789e-01 5.6140020634211807e-01  5.7008329908182687e-01 5.0222463853299903e-01 5.5360381648244072e-01  5.6877225417936583e-01 5.0697255693559651e-01 5.4656309389530078e-01  5.6756361569108005e-01 5.1059091666736034e-01 5.4061871447000132e-01  5.6602498634495169e-01 5.1463661831895258e-01 5.3343088896410717e-01  5.6484651212969972e-01 5.1726047826807420e-01 5.2825055182419778e-01  5.6405025253743046e-01 5.1888412822520980e-01 5.2484686640172362e-01  5.6331451600186955e-01 5.2016460465690406e-01 5.2185706432493550e-01  5.6200974860003694e-01 5.2205235647027382e-01 5.1681978316119626e-01  5.5900488102805712e-01 5.2459479218842930e-01 5.0640699862242089e-01  5.5210446837478300e-01 5.2802143104900601e-01 4.8336874729736190e-01  5.5089278570777989e-01 5.2829950236412904e-01 4.7943461977951773e-01  5.4619550607871747e-01 5.2638996265853255e-01 4.6589227543148387e-01  5.3776299204351907e-01 5.1758608748189638e-01 4.4365381781408081e-01  5.3651761000035403e-01 5.1575292331739242e-01 4.4054428281345648e-01  5.3565427685280542e-01 5.1409338867389565e-01 4.3861232967670594e-01  5.3278217085472412e-01 5.0828426558046347e-01 4.3217118843862934e-01  5.2917956986032577e-01 5.0034002599989069e-01 4.2416012707407635e-01  5.2157675469257292e-01 4.7888509011332892e-01 4.0859013527202892e-01  5.1786929402207749e-01 4.6659206814110471e-01 4.0134441533577592e-01  5.1685938859865987e-01 4.6307307304461798e-01 3.9938685926480760e-01  5.1625036768954558e-01 4.6083614953318325e-01 3.9825013921445263e-01  5.1512805818167362e-01 4.5656832209298109e-01 3.9621159734591627e-01  5.1541126941827020e-01 4.5770408708857557e-01 3.9669582331335518e-01  5.1348293543441170e-01 4.4996750096385374e-01 3.9334747040609891e-01  5.1024884825472938e-01 4.3588650452647737e-01 3.8805814578296954e-01  5.0988110217795135e-01 4.3425329667647239e-01 3.8744734853972440e-01  5.1256214622503982e-01 4.4598534311645777e-01 3.9186713307097293e-01  5.0844766356842619e-01 4.2735338642706566e-01 3.8533997252093799e-01  5.0714253568520795e-01 4.2098641181040630e-01 3.8339397234123640e-01  5.0669415157868092e-01 4.1876821766252870e-01 3.8272826537256444e-01  5.0618095058744683e-01 4.1619069820601928e-01 3.8197568050964464e-01  5.0611598469515251e-01 4.1586184356787409e-01 3.8188128784309255e-01  5.0607982359081904e-01 4.1567718088981159e-01 3.8182962163176759e-01  5.0609134943767464e-01 4.1573598277031615e-01 3.8184612967517018e-01  5.0610445602476528e-01 4.1580293894365289e-01 3.8186484208376614e-01  5.0614526614365618e-01 4.1601117411405730e-01 3.8192318861735247e-01  5.0619767827420481e-01 4.1627833786736074e-01 3.8199817580742418e-01  5.0626541070873532e-01 4.1662342583243323e-01 3.8209500628421322e-01  5.0634481824754307e-01 4.1702771569010044e-01 3.8220843032518820e-01  5.0643389072366507e-01 4.1748079724125792e-01 3.8233557057749351e-01  5.0652988720105074e-01 4.1796861855408440e-01 3.8247246675832919e-01  5.0663284825905730e-01 4.1849100810130696e-01 3.8261932226479628e-01  5.0674062272477272e-01 4.1903691060062981e-01 3.8277307945825945e-01  5.0685146490894395e-01 4.1959730078447910e-01 3.8293128801279053e-01  5.0696708157031745e-01 4.2018030769754200e-01 3.8309663740938343e-01  5.0720137422165390e-01 4.2135713562122712e-01 3.8343268794659618e-01  5.0731188590632792e-01 4.2190992085048618e-01 3.8359174470962987e-01  5.0742326889407652e-01 4.2246513595300428e-01 3.8375267339526742e-01  5.0753562643961503e-01 4.2302322546654125e-01 3.8391566349896850e-01  5.0764826066592716e-01 4.2358066107234454e-01 3.8407972562534065e-01  5.0776034951827997e-01 4.2413338053363214e-01 3.8424367312878510e-01  5.0787216202265262e-01 4.2468251869758278e-01 3.8440802998162604e-01  5.0798176116865701e-01 4.2521860398744682e-01 3.8456995856799642e-01  5.0808617783357590e-01 4.2572723183625150e-01 3.8472505752726660e-01  5.0818154572867735e-01 4.2618981642885168e-01 3.8486754621125813e-01  5.0825992016025301e-01 4.2656834034600616e-01 3.8498538237202634e-01  5.0835198751857058e-01 4.2700845918788694e-01 3.8512613330191797e-01  5.0845940743267026e-01 4.2751789262301110e-01 3.8529222624398329e-01  5.0862296698106824e-01 4.2829124249709211e-01 3.8554553382216789e-01  5.0920583417586596e-01 4.3103103117427294e-01 3.8644939007635365e-01  5.0950675638707876e-01 4.3243437441494537e-01 3.8691729447065587e-01  5.0980597380969661e-01 4.3382039002036632e-01 3.8738417696988231e-01  5.1010865571875319e-01 4.3521245336813108e-01 3.8785848834507192e-01  5.1041552882518726e-01 4.3661323265821422e-01 3.8834167885109927e-01  5.1072596653122426e-01 4.3801929950827079e-01 3.8883300028668216e-01  5.1103859067159507e-01 4.3942396363924086e-01 3.8933045280225953e-01  5.1135181414920605e-01 4.4081991045292546e-01 3.8983164244756430e-01  5.1166297569381547e-01 4.4219502426780061e-01 3.9033246184820081e-01  5.1197082155578832e-01 4.4354359541077787e-01 3.9083117558946268e-01  5.1226946006728913e-01 4.4484055207993034e-01 3.9131811899529650e-01  5.1255219837884614e-01 4.4605748790849992e-01 3.9178246648766568e-01  5.1302872385145393e-01 4.4807815593998440e-01 3.9257568336634474e-01  5.1331620951599988e-01 4.4927942411833538e-01 3.9306032552862946e-01  5.1363095440607398e-01 4.5058322351852115e-01 3.9359401645233483e-01  5.1396244159389504e-01 4.5194409829282012e-01 3.9415925293220117e-01  5.1430457693030551e-01 4.5333641531473179e-01 3.9474534029647418e-01  5.1465246949103649e-01 4.5474061043417013e-01 3.9534330723277844e-01  5.1500655595975386e-01 4.5615899844614516e-01 3.9595330234912984e-01  5.1568085486585380e-01 4.5884821593884850e-01 3.9710825416042927e-01  5.1588866960055046e-01 4.5967864378220658e-01 3.9745917086697918e-01  5.1602689042914329e-01 4.6023627211049434e-01 3.9768788110007353e-01  5.1611844685840980e-01 4.6061036061476485e-01 3.9783570999830487e-01  5.1617049211912081e-01 4.6082938940889984e-01 3.9791534274149531e-01  5.1619371131498015e-01 4.6093384855420128e-01 3.9794638385973691e-01  5.1619841352307050e-01 4.6096228439302861e-01 3.9794788075559279e-01  5.1620705346546214e-01 4.6099372280887629e-01 3.9796428264616673e-01  5.1625023050164021e-01 4.6114022665959009e-01 3.9805316440493604e-01  5.1634060363526957e-01 4.6145076698888421e-01 3.9823635765000459e-01  5.1648830177120431e-01 4.6195989794790532e-01 3.9853388879528157e-01  5.1670829309115085e-01 4.6271803196171996e-01 3.9897525195290640e-01  5.1701477395174178e-01 4.6377030576210965e-01 3.9958883414873575e-01  5.1742608555244884e-01 4.6517205171161924e-01 4.0041168022538387e-01  5.1797533138082297e-01 4.6702449679440949e-01 4.0150946372545443e-01  5.1874671170302766e-01 4.6959061004797392e-01 4.0304840432592337e-01  5.2167832343724407e-01 4.7904924280222833e-01 4.0888912608148809e-01  5.2281746632993786e-01 4.8258113601191122e-01 4.1116895374302875e-01  5.2380222477855320e-01 4.8554237432316011e-01 4.1315429614974419e-01  5.2464237029016103e-01 4.8799305516515779e-01 4.1486567630388332e-01  5.2531687409623729e-01 4.8990457648946278e-01 4.1625636546344541e-01  5.2597355884392194e-01 4.9167265015489026e-01 4.1764650589023417e-01  5.2651538945708554e-01 4.9306049095914867e-01 4.1881944632591334e-01  5.2733113132479625e-01 4.9509880276717422e-01 4.2059585071768857e-01  5.3044530455575456e-01 5.0250520297092194e-01 4.2743743331892409e-01  5.3182400126634888e-01 5.0557383420211544e-01 4.3050269730730562e-01  5.3307194084171516e-01 5.0821491635966021e-01 4.3330309018107260e-01  5.3425443935296657e-01 5.1059204928647739e-01 4.3598371582349121e-01  5.3539957518030923e-01 5.1277443393214694e-01 4.3860788134693290e-01  5.3653030786459144e-01 5.1481586479687069e-01 4.4122670573224154e-01  5.3768317962903778e-01 5.1678538376896721e-01 4.4392383750205106e-01  5.4017803897074756e-01 5.2071659007370796e-01 4.4983650263091668e-01  5.4098666808965434e-01 5.2189694972625067e-01 4.5177383860587211e-01  5.4160006255732085e-01 5.2275089971504196e-01 4.5325545907893039e-01  5.4205037424551306e-01 5.2334918410630116e-01 4.5435418262511257e-01  5.4252261942712998e-01 5.2391678008690368e-01 4.5553887573043228e-01  5.4287788194774544e-01 5.2429506709187368e-01 4.5645831969227957e-01  5.4330789657232759e-01 5.2472670946733035e-01 4.5758478342693187e-01  5.4378893697279296e-01 5.2518069083724495e-01 4.5885880507734783e-01  5.4429753768424005e-01 5.2562857695834098e-01 4.6022104836236982e-01  5.4482422938535169e-01 5.2605943198633320e-01 4.6164677469534732e-01  5.4535915823415115e-01 5.2646325864464405e-01 4.6311009357274446e-01  5.4589098640710065e-01 5.2683025068159073e-01 4.6458095962198503e-01  5.4640572135432630e-01 5.2715228449064766e-01 4.6602011361064938e-01  5.4738198010619865e-01 5.2765914647710688e-01 4.6880066765248091e-01  5.4797015879024535e-01 5.2789911149478574e-01 4.7050819151523787e-01  5.4859244585670108e-01 5.2810730308454179e-01 4.7233689141483914e-01  5.4924135460741319e-01 5.2827466480716800e-01 4.7426749229461834e-01  5.4990937984778754e-01 5.2839570488788412e-01 4.7627941495427112e-01  5.5059162585254418e-01 5.2846491501914006e-01 4.7836034208902523e-01  5.5128606677879433e-01 5.2847858204102605e-01 4.8050598624093599e-01  5.5198990039028695e-01 5.2843341377108566e-01 4.8270968048327062e-01  5.5269997827879769e-01 5.2832699003025996e-01 4.8496338160599933e-01  5.5341608759645844e-01 5.2815618255538999e-01 4.8726847047666383e-01  5.5413669432473300e-01 5.2791929560852735e-01 4.8962163684599158e-01  5.5485976125822256e-01 5.2761497058176410e-01 4.9201793342638139e-01  5.5558747875492009e-01 5.2723896956670313e-01 4.9446696463217660e-01  5.5631569907009160e-01 5.2678904355692147e-01 4.9695784305125174e-01  5.5704993429122840e-01 5.2626111756994898e-01 4.9951041785720479e-01  5.5849416830708354e-01 5.2500096524662354e-01 5.0465657952615250e-01  5.5918583065698113e-01 5.2428765144715028e-01 5.0718442239326789e-01  5.5987681582130933e-01 5.2350381573872140e-01 5.0975144826795993e-01  5.6057388590183865e-01 5.2263418909524484e-01 5.1238755086808130e-01  5.6128112935173058e-01 5.2167482263297782e-01 5.1510724313598721e-01  5.6201484472291008e-01 5.2059638975252898e-01 5.1797725436702469e-01  5.6281240238319519e-01 5.1932815901828178e-01 5.2115270876464725e-01  5.6476470411573898e-01 5.1585652267787341e-01 5.2914353113417145e-01  5.6546130162493502e-01 5.1448214426093097e-01 5.3207663190799448e-01  5.6604681657881495e-01 5.1325522348549779e-01 5.3458584762335681e-01  5.6656038196783798e-01 5.1211707732907252e-01 5.3682593193620975e-01  5.6701808649470464e-01 5.1104798715743904e-01 5.3885825235439044e-01  5.6742556595667593e-01 5.1004661979426524e-01 5.4070114388146018e-01  5.6778344585455509e-01 5.0912324909435558e-01 5.4235024197462200e-01  5.6808500246950910e-01 5.0830870973347742e-01 5.4376572783129973e-01  5.6846631720691487e-01 5.0720642000496441e-01 5.4560788265733196e-01  5.6871598075141871e-01 5.0643727869311950e-01 5.4684824548702349e-01  5.6901899906662023e-01 5.0547011433920963e-01 5.4837749889565290e-01  5.6984015158907031e-01 5.0270233370030992e-01 5.5262413710776159e-01  5.7018685708287808e-01 5.0146813337307372e-01 5.5446263573708476e-01  5.7049993115063191e-01 5.0031311287780200e-01 5.5615080684307261e-01  5.7079348800385055e-01 4.9919300309063214e-01 5.5775943130335404e-01  5.7107419202886212e-01 4.9808574364405866e-01 5.5932283490398260e-01  5.7134814108362064e-01 4.9697068783561144e-01 5.6087246478103958e-01  5.7162531993945431e-01 4.9580755534427595e-01 5.6246462970890487e-01  5.7225772487403681e-01 4.9303514811502969e-01 5.6617970253602834e-01  5.7246862283370126e-01 4.9207234158096852e-01 5.6744509855627290e-01  5.7263864601820280e-01 4.9127835159224187e-01 5.6847754540972550e-01  5.7278123062963304e-01 4.9059859930300004e-01 5.6935311068941563e-01  5.7290274887723303e-01 4.9000823373151425e-01 5.7010716956445395e-01  5.7300695441977478e-01 4.8949318966206945e-01 5.7076012774278384e-01  5.7309609815784979e-01 4.8904563139434920e-01 5.7132376286033826e-01  5.7317173023939494e-01 4.8866055348374959e-01 5.7180587680775441e-01  5.7323522898804136e-01 4.8833329680017384e-01 5.7221354117038081e-01  5.7328738999283102e-01 4.8806168709267161e-01 5.7255045394125748e-01  5.7332905038539506e-01 4.8784292427784409e-01 5.7282088132278441e-01  5.7336059800103678e-01 4.8767621252989363e-01 5.7302642961402139e-01  5.7338248989115548e-01 4.8756004506636808e-01 5.7316941207269978e-01  5.7339529049550320e-01 4.8749195457274674e-01 5.7325313400772049e-01  5.7340104930164770e-01 4.8745956544072344e-01 5.7329217939280530e-01  5.7340778239333146e-01 4.8741778443649392e-01 5.7334090890336920e-01  5.7342000091022949e-01 4.8734252234958103e-01 5.7342888910213374e-01  5.7343785307615036e-01 4.8723283445366750e-01 5.7355719820711648e-01  5.7346280183825016e-01 4.8708029297073563e-01 5.7373588695376232e-01  5.7352373997284078e-01 4.8670891155453211e-01 5.7417125790266155e-01  5.7351947296652817e-01 4.8674463021768571e-01 5.7413313813604760e-01  5.7352267385474187e-01 4.8673247063068020e-01 5.7415021019148293e-01  5.7352605664108491e-01 4.8671699551242331e-01 5.7417031528330442e-01  5.7352835350625242e-01 4.8670615243178311e-01 5.7418422910269318e-01  5.7352813208509423e-01 4.8670720169693676e-01 5.7418288475157242e-01  5.7352494458986991e-01 4.8672238743403579e-01 5.7416346608285718e-01  5.7351881416626849e-01 4.8675266224105307e-01 5.7412526632415317e-01  5.7359742745106124e-01 4.8622944325781731e-01 5.7472125032841326e-01  5.7364533338781798e-01 4.8592297199492951e-01 5.7507451499035245e-01  5.7369469570879916e-01 4.8560582244701128e-01 5.7543942724202812e-01  5.7374590782624568e-01 4.8527448155528125e-01 5.7581965031217841e-01  5.7379910916132726e-01 4.8492738168234029e-01 5.7621671744498826e-01  5.7385431704089018e-01 4.8456391149192002e-01 5.7663112245038384e-01  5.7391193351280179e-01 4.8418095300440561e-01 5.7706621519038304e-01  5.7397295722732811e-01 4.8377141211173885e-01 5.7752984446524525e-01  5.7403981331220033e-01 4.8331826807151440e-01 5.7804094460390754e-01  5.7420486539649018e-01 4.8218267576207652e-01 5.7931461907236792e-01  5.7426682172238874e-01 4.8174973758541856e-01 5.7979743844511400e-01  5.7432057158708927e-01 4.8137032594733847e-01 5.8021902964027972e-01  5.7436842449084879e-01 4.8102912811822313e-01 5.8059682121997558e-01  5.7441177312822889e-01 4.8071706474468440e-01 5.8094121263560561e-01  5.7445114869995828e-01 4.8043093301142381e-01 5.8125598744405160e-01  5.7448696246101882e-01 4.8016832849128355e-01 5.8154401542611234e-01  5.7451946228405260e-01 4.7992795925506010e-01 5.8180690995044637e-01  5.7454879501714118e-01 4.7970922879663241e-01 5.8204550248081977e-01  5.7457491900882918e-01 4.7951289893838522e-01 5.8225912458058515e-01  5.7459771407382010e-01 4.7934032402824217e-01 5.8244646333133254e-01  5.7461670677669108e-01 4.7919554446252460e-01 5.8260329273748845e-01  5.7464197846398901e-01 4.7900079615760399e-01 5.8281355346368746e-01  5.7465884186489580e-01 4.7886941705639990e-01 5.8295492913673663e-01  5.7467822391517254e-01 4.7871755198356547e-01 5.8311805834663677e-01  5.7470073697762114e-01 4.7854025862536176e-01 5.8330819068136552e-01  5.7474767806939253e-01 4.7816963857357431e-01 5.8370525154021302e-01  5.7475211875179166e-01 4.7813485430792113e-01 5.8374259039633980e-01  5.7475363939999546e-01 4.7812303974283088e-01 5.8375529928451830e-01  5.7475366973758701e-01 4.7812280427554232e-01 5.8375555262204648e-01  5.7475287329065006e-01 4.7812889655095797e-01 5.8374897138886106e-01  5.7475269596963985e-01 4.7812993141522614e-01 5.8374775614572039e-01  5.7475497079634374e-01 4.7811137301257312e-01 5.8376745490920201e-01  5.7476771672348781e-01 4.7800896966171424e-01 5.8387659066193831e-01  5.7477323567944061e-01 4.7796483758963088e-01 5.8392367965006309e-01  5.7477707867261552e-01 4.7793425248853294e-01 5.8395635458164663e-01  5.7477937707338056e-01 4.7791602819114143e-01 5.8397584327460006e-01  5.7478011919255934e-01 4.7791014702463075e-01 5.8398213330370186e-01  5.7477960461743349e-01 4.7791419417735825e-01 5.8397779577284692e-01  5.7477814561027096e-01 4.7792566049652019e-01 5.8396550398021596e-01  5.7477609637693072e-01 4.7794158039873630e-01 5.8394838263420212e-01  5.7478300314065178e-01 4.7788298516436456e-01 5.8400991235814936e-01  5.7479092083854810e-01 4.7781798910285889e-01 5.8407875902426509e-01  5.7479787502400281e-01 4.7776086714526378e-01 5.8413925022987956e-01  5.7480368693430461e-01 4.7771303675141569e-01 5.8418987242885390e-01  5.7480807285890634e-01 4.7767686209330007e-01 5.8422813380711525e-01  5.7481225957621140e-01 4.7764207709687817e-01 5.8426485130033845e-01  5.7481518837758294e-01 4.7761748791735792e-01 5.8429073313544888e-01  5.7481877010