<?xml version="1.0"?>
<VTKFile type="UnstructuredGrid"  version="0.1"  >
<UnstructuredGrid>
<Piece  NumberOfPoints="7288" NumberOfCells="14083">
<Points>
<DataArray  type="Float64"  NumberOfComponents="3"  format="ascii">239.8 188 0  250.2 180 0  258.2 172.4 0  257 169.4 0  259.9 157.4 0  258.7 150.3 0  261 143.5 0  251.7 144.4 0  250 138.7 0  247 138.1 0  245.2 130.8 0  247.3 126.4 0  242.7 118.6 0  231.2 107.7 0  226 102.4 0  226.5 93.90000000000001 0  224.5 91.19999999999999 0  224.5 84.09999999999999 0  234.5 73.80000000000001 0  228.4 68.90000000000001 0  230 70 0  233.4 68 0  222.7 61.5 0  220.6 45.5 0  223.4 49.40000000000001 0  224 47 0  221.8 43.09999999999999 0  221 38.40000000000001 0  219.5 38.5 0  219.4 41.69999999999999 0  217.1 36.90000000000001 0  209.7 36 0  209.5 31.69999999999999 0  205.1 29.90000000000001 0  201.5 30.40000000000001 0  199.2 38.69999999999999 0  201.8 41.40000000000001 0  194.8 53.80000000000001 0  196.1 57.69999999999999 0  193 59 0  191.4 66.09999999999999 0  193.5 66.5 0  194.1 64.40000000000001 0  195.6 64.69999999999999 0  195.4 72.40000000000001 0  199.5 77.30000000000001 0  197.7 86.90000000000001 0  200.6 87.5 0  201.5 91 0  198 94.80000000000001 0  198.6 100 0  197.3 105.4 0  198 109.5 0  197 112.7 0  198.3 116.1 0  201.3 122 0  207.2 121 0  208.1 126.7 0  205.6 127.9 0  209.1 134.9 0  210.9 144.4 0  210.1 147.9 0  213 148.4 0  215.4 149.3 0  215.1 152.8 0  219.9 159.7 0  220.3 163.2 0  218.7 164.9 0  219.9 166.7 0  221.9 169.7 0  220 170.3 0  224.9 174.7 0  229.8 177.4 0  229.7 181 0  228 172.9 0  239 178 0  240.4 180 0  239 181.5 0  241.2 185.9 0  242.95 187.99 0  240.5875 187.9975 0  241.375 187.995 0  242.1625 187.9925 0  243.6090909090879 187.2636363636397 0  244.2681818181765 186.5372727272785 0  244.9272727272692 185.810909090913 0  245.5863636363531 185.0845454545571 0  246.245454545445 184.3581818181923 0  246.9045454545351 183.6318181818295 0  247.5636363636303 182.9054545454612 0  248.2227272727197 182.1790909090992 0  248.8818181818179 181.4527272727275 0  249.5409090909066 180.7263636363664 0  250.8666666666961 179.3666666666387 0  251.5333333334033 178.7333333332668 0  252.2000000000994 178.0999999999055 0  252.8666666668011 177.466666666539 0  253.5333333335083 176.8333333331671 0  254.2000000002044 176.1999999998058 0  254.8666666669005 175.5666666664445 0  255.5333333336077 174.9333333330727 0  256.2000000002685 174.2999999997449 0  256.8666666668457 173.6666666664966 0  257.5333333334283 173.033333333243 0  257.9000000000077 171.6500000000191 0  257.6000000000015 170.9000000000038 0  257.2999999999954 170.1499999999885 0  257.2230769230778 168.4769230769195 0  257.4461538461543 167.5538461538442 0  257.6692307692309 166.6307692307688 0  257.8923076923074 165.7076923076935 0  258.115384615384 164.7846153846181 0  258.3384615384605 163.8615384615427 0  258.5615384615395 162.9384615384572 0  258.784615384616 162.0153846153819 0  259.0076923076926 161.0923076923065 0  259.2307692307691 160.1692307692311 0  259.4538461538457 159.2461538461558 0  259.6769230769222 158.3230769230804 0  259.750000000001 156.512500000006 0  259.6000000000014 155.6250000000082 0  259.4500000000029 154.7375000000176 0  259.3000000000018 153.8500000000108 0  259.1500000000007 152.962500000004 0  259.0000000000004 152.0750000000026 0  258.849999999999 151.187499999994 0  258.9875000000052 149.4499999999846 0  259.275000000002 148.5999999999941 0  259.5624999999954 147.7500000000135 0  259.849999999995 146.900000000015 0  260.1374999999945 146.0500000000164 0  260.4249999999913 145.2000000000259 0  260.7124999999948 144.3500000000154 0  260.0700000000398 143.5899999999961 0  259.1400000000573 143.6799999999944 0  258.2100000000351 143.7699999999966 0  257.2800000000262 143.8599999999975 0  256.350000000011 143.9499999999989 0  255.4199999999881 144.0400000000011 0  254.4899999999726 144.1300000000026 0  253.5599999999944 144.2200000000005 0  252.6300000000009 144.3099999999999 0  251.4166666666658 143.4499999999971 0  251.1333333333388 142.5000000000182 0  250.8500000000015 141.5500000000051 0  250.5666666666612 140.5999999999818 0  250.2833333333342 139.6500000000029 0  249.2500000000005 138.5500000000001 0  248.5000000000011 138.4000000000002 0  247.7499999999995 138.2499999999999 0  246.7750000000005 137.1875000000023 0  246.5500000000021 136.2750000000085 0  246.3250000000036 135.3625000000147 0  246.1000000000042 134.450000000017 0  245.8750000000022 133.5375000000088 0  245.650000000003 132.6250000000124 0  245.4250000000046 131.7125000000187 0  245.619999999996 129.9200000000084 0  246.0399999999992 129.0400000000017 0  246.4599999999987 128.1600000000028 0  246.8800000000001 127.2799999999997 0  246.8399999999988 125.6199999999979 0  246.3799999999984 124.8399999999973 0  245.9199999999991 124.0599999999985 0  245.4600000000036 123.2800000000062 0  245.0000000000049 122.5000000000082 0  244.5400000000036 121.7200000000062 0  244.0800000000033 120.9400000000056 0  243.6200000000016 120.1600000000027 0  243.1600000000012 119.3800000000021 0  241.9812499999996 117.9187499999997 0  241.2625000000007 117.2375000000007 0  240.5437500000017 116.5562500000017 0  239.8250000000041 115.875000000004 0  239.1062500000066 115.1937500000063 0  238.3875000000076 114.5125000000072 0  237.6687500000087 113.8312500000082 0  236.9500000000083 113.1500000000079 0  236.231250000008 112.4687500000076 0  235.512500000009 111.7875000000085 0  234.7937500000045 111.1062500000043 0  234.0750000000042 110.4250000000039 0  233.3562500000066 109.7437500000062 0  232.6375000000021 109.062500000002 0  231.9187500000031 108.381250000003 0  230.5500000000004 107.0375000000004 0  229.9000000000021 106.3750000000021 0  229.2500000000038 105.7125000000039 0  228.6000000000041 105.0500000000042 0  227.9500000000018 104.3875000000018 0  227.2999999999952 103.7249999999951 0  226.6500000000024 103.0625000000024 0  226.0555555555555 101.4555555555556 0  226.1111111111111 100.5111111111111 0  226.1666666666667 99.56666666666668 0  226.2222222222222 98.62222222222223 0  226.2777777777778 97.67777777777778 0  226.3333333333333 96.73333333333335 0  226.3888888888889 95.78888888888889 0  226.4444444444445 94.84444444444446 0  226 93.22499999999999 0  225.5000000000026 92.55000000000358 0  225.0000000000026 91.87500000000358 0  224.5 90.31250000000068 0  224.5 89.4250000000097 0  224.5 88.53750000001317 0  224.5 87.65000000001388 0  224.5 86.76250000001457 0  224.5 85.87500000001248 0  224.5 84.9874999999993 0  225.1666666666659 83.41333333333409 0  225.8333333333319 82.72666666666818 0  226.4999999999978 82.04000000000228 0  227.1666666666649 81.35333333333514 0  227.8333333333301 80.66666666667 0  228.4999999999942 79.980000000006 0  229.1666666666601 79.2933333333401 0  229.8333333333316 78.60666666666847 0  230.4999999999975 77.92000000000257 0  231.1666666666644 77.23333333333572 0  231.8333333333295 76.54666666667057 0  232.4999999999972 75.86000000000287 0  233.1666666666681 75.17333333333181 0  233.8333333333368 74.48666666666306 0  233.7499999999995 73.16666666666629 0  233.0000000000018 72.53333333333488 0  232.2500000000014 71.90000000000116 0  231.5000000000009 71.26666666666743 0  230.7500000000005 70.63333333333372 0  229.233333333333 68.75000000000006 0  230.0666666666665 68.60000000000004 0  230.8999999999995 68.45000000000009 0  231.7333333333325 68.30000000000015 0  232.566666666667 68.14999999999995 0  232.5499999999897 68.50000000000607 0  231.7 69 0  230.8500000000103 69.49999999999393 0  227.8300000000008 68.16000000000106 0  227.2600000000064 67.42000000000837 0  226.6900000000077 66.68000000001001 0  226.1200000000024 65.94000000000314 0  225.5500000000108 65.20000000001409 0  224.9800000000098 64.46000000001268 0  224.4100000000007 63.72000000000098 0  223.8399999999971 62.97999999999621 0  223.2699999999993 62.23999999999915 0  222.753846153846 60.56923076923239 0  222.8076923076921 59.63846153846478 0  222.8615384615381 58.70769230769827 0  222.9153846153842 57.77692307693071 0  222.9692307692302 56.84615384616315 0  223.0230769230761 55.91538461539836 0  223.0769230769224 54.98461538462665 0  223.1307692307688 54.05384615385345 0  223.184615384615 53.12307692308312 0  223.2384615384611 52.19230769231556 0  223.2923076923071 51.26153846154906 0  223.3461538461533 50.33076923077847 0  222.8400000000024 48.62000000000327 0  222.2800000000047 47.84000000000661 0  221.7200000000005 47.06000000000071 0  221.1600000000003 46.28000000000039 0  221.4500000000116 45.87500000000512 0  222.3 46.25 0  223.1499999999884 46.62499999999488 0  223.5600000000055 46.22000000000981 0  223.1199999999987 45.43999999999767 0  222.6800000000061 44.66000000001075 0  222.2399999999969 43.8799999999944 0  221.6400000000004 42.16000000000253 0  221.4800000000009 41.22000000000548 0  221.3200000000014 40.28000000000801 0  221.1600000000009 39.34000000000556 0  220.25 38.45 0  219.4749999999999 39.30000000000165 0  219.45 40.09999999999999 0  219.425 40.90000000000112 0  219.0166666666641 40.89999999999463 0  218.6333333333375 40.10000000000875 0  218.2500000000016 39.30000000000339 0  217.8666666666635 38.49999999999351 0  217.483333333337 37.70000000000762 0  216.1750000000165 36.78750000000201 0  215.2500000000275 36.67500000000335 0  214.3250000000385 36.56250000000469 0  213.4000000000277 36.45000000000337 0  212.4750000000059 36.33750000000072 0  211.5499999999838 36.22499999999803 0  210.6249999999835 36.11249999999799 0  209.6600000000001 35.14000000000318 0  209.6200000000001 34.28000000000268 0  209.5800000000001 33.42000000000284 0  209.5399999999998 32.55999999999681 0  208.6200000000117 31.34000000000476 0  207.7400000000138 30.98000000000564 0  206.8600000000162 30.62000000000662 0  205.9800000000174 30.26000000000711 0  204.2000000000054 30.02499999999925 0  203.2999999999946 30.15000000000076 0  202.3999999999945 30.27500000000076 0  201.2444444444438 31.32222222222468 0  200.9888888888895 32.24444444
[...]
<PointData  Vectors="f_12"> 
<DataArray  type="Float64"  Name="f_12"  NumberOfComponents="3" format="ascii">4.9450571456700781e-01 3.4419086833611989e-01 3.6954070888135410e-01  4.9509620373216900e-01 3.4839295867297060e-01 3.7000692198480456e-01  4.9587156896894830e-01 3.5379532031371153e-01 3.7065790362106882e-01  4.9627978143222867e-01 3.5653892812509891e-01 3.7104749685376209e-01  4.9938245112364393e-01 3.7645605222804107e-01 3.7429234959083346e-01  5.0185649359330120e-01 3.9096995525782274e-01 3.7735906253156321e-01  5.0260398037601428e-01 3.9538516983349492e-01 3.7820842128666049e-01  5.0767665898498049e-01 4.1958245839374791e-01 3.8678061970949973e-01  5.1542666082906985e-01 4.5239886636829141e-01 4.0034951157374565e-01  5.1987077711567842e-01 4.6742221563678965e-01 4.0921972533413403e-01  5.3647996366786754e-01 5.1005630253883716e-01 4.4451739472818386e-01  5.4197175095871764e-01 5.1934073631206423e-01 4.5712987228128954e-01  5.4965430505839163e-01 5.2447185696579646e-01 4.7851941359671629e-01  5.6575827775802245e-01 5.0897850659358579e-01 5.3725184107315160e-01  5.7205784225879175e-01 4.8820469192234334e-01 5.6953989365220703e-01  5.7541399480631572e-01 4.6953441937779422e-01 5.9197973677344173e-01  5.7598362957701588e-01 4.6435585120166861e-01 5.9725500869749970e-01  5.7694567561634680e-01 4.5241509217700532e-01 6.0848216992601389e-01  5.7729234467569024e-01 4.4566801085906743e-01 6.1429790117308070e-01  5.7729664163479510e-01 4.4540915133436565e-01 6.1449825219204013e-01  5.7729716997366787e-01 4.4545216362351042e-01 6.1446812850253751e-01  5.7730322238894294e-01 4.4528925603671510e-01 6.1460270960980579e-01  5.7727284424061653e-01 4.4516192573370539e-01 6.1461840002505408e-01  5.7712498632196263e-01 4.4721728280447282e-01 6.1273435840914992e-01  5.7717152380897341e-01 4.4647134464461363e-01 6.1340042697098596e-01  5.7711511280759598e-01 4.4737553736651370e-01 6.1259291136241667e-01  5.7711069111025692e-01 4.4744834909165992e-01 6.1252821477142849e-01  5.7710032630970542e-01 4.4761634242323073e-01 6.1237833866030256e-01  5.7710033120301063e-01 4.4761627258317244e-01 6.1237840319888726e-01  5.7710218042403771e-01 4.4758762048368200e-01 6.1240427228404548e-01  5.7707537409545806e-01 4.4802681787303050e-01 6.1201347100192838e-01  5.7703516215756911e-01 4.4867783903074426e-01 6.1143295303770573e-01  5.7700596232037060e-01 4.4914708437961220e-01 6.1101359785289622e-01  5.7699882298003558e-01 4.4926153705713129e-01 6.1091123009089576e-01  5.7699838040239582e-01 4.4926879368723738e-01 6.1090477078950112e-01  5.7702875840392864e-01 4.4878176881816229e-01 6.1134040368088394e-01  5.7706887183804745e-01 4.4813203246122096e-01 6.1192020404925540e-01  5.7724025880611263e-01 4.4534293486491633e-01 6.1440277521022735e-01  5.7727619292220567e-01 4.4480893595788257e-01 6.1488539468733061e-01  5.7729667418118868e-01 4.4450674888850950e-01 6.1515875677337239e-01  5.7732937953683583e-01 4.4430695849761620e-01 6.1538804423667737e-01  5.7732731702317575e-01 4.4434218971367972e-01 6.1535701241408269e-01  5.7731011667550891e-01 4.4439470852936169e-01 6.1527490803264062e-01  5.7731497746216431e-01 4.4439658645893781e-01 6.1528586159538390e-01  5.7731841188034205e-01 4.4484376830146838e-01 6.1496724260361746e-01  5.7724098132401502e-01 4.4727167676633567e-01 6.1299231750893968e-01  5.7702362088193981e-01 4.5224105139717052e-01 6.0879087895835260e-01  5.7692127127544512e-01 4.5389154286357919e-01 6.0732003605198981e-01  5.7650762084393403e-01 4.6006557720922359e-01 6.0171655400420621e-01  5.7607377154536721e-01 4.6575421370056513e-01 5.9639081171783348e-01  5.7554018032744869e-01 4.7099651308784379e-01 5.9114057775367057e-01  5.7474729472809327e-01 4.7754995120902466e-01 5.8423519163091531e-01  5.7400579439450916e-01 4.8248179592185414e-01 5.7865890986741852e-01  5.7345950970585302e-01 4.8574777272640640e-01 5.7481601076915012e-01  5.7285998805397820e-01 4.8868319331697929e-01 5.7108741387723450e-01  5.7162433208909080e-01 4.9359682344754313e-01 5.6424867666329082e-01  5.6795166692760612e-01 5.0284077446027831e-01 5.4776342385740662e-01  5.5869399552667431e-01 5.1917717217131998e-01 5.0981170769835615e-01  5.5695328900651753e-01 5.2140877157074172e-01 5.0307520098394720e-01  5.4920976729066862e-01 5.2203160134658200e-01 4.7892779422362836e-01  5.3438105993605922e-01 5.0708344983227915e-01 4.3907427446455632e-01  5.3217051442679786e-01 5.0324782241171495e-01 4.3362734392603114e-01  5.3072048443087938e-01 4.9963797531697896e-01 4.3066056960975380e-01  5.2594488080817892e-01 4.8695190235244040e-01 4.2080229554895893e-01  5.2008692079754393e-01 4.6961689082611247e-01 4.0879898743364884e-01  5.0918938712865880e-01 4.2661781705710855e-01 3.8927684302204929e-01  5.0446589864118829e-01 4.0419966068111512e-01 3.8156236402914379e-01  5.0322947151592967e-01 3.9799759586420269e-01 3.7958814043921058e-01  5.0253737698126566e-01 3.9433262290933208e-01 3.7855916748046303e-01  5.0133155076647440e-01 3.8772037289738620e-01 3.7685748130843155e-01  5.0160139317091978e-01 3.8928923975167884e-01 3.7719216383910820e-01  4.9973254122274829e-01 3.7845541249428405e-01 3.7479630754969978e-01  4.9709831583993969e-01 3.6192691453072212e-01 3.7188238000725349e-01  4.9679838414616911e-01 3.6000998627347647e-01 3.7154968871250610e-01  4.9899603332809683e-01 3.7384557412992314e-01 3.7400666916999697e-01  4.9594954352647380e-01 3.5421116429343913e-01 3.7080148390473300e-01  4.9514053381167034e-01 3.4864332886215299e-01 3.7008059635505219e-01  4.9486769185306828e-01 3.4674504579784804e-01 3.6984257040126678e-01  4.9456659749969556e-01 3.4462392661563668e-01 3.6958983373332016e-01  4.9452916946213410e-01 3.4435849582038636e-01 3.6955919105483226e-01  4.9450875057415850e-01 3.4421252768607291e-01 3.6954312539154349e-01  4.9451527096943476e-01 3.4425909495304025e-01 3.6954828477774626e-01  4.9452266481177370e-01 3.4431196955595483e-01 3.6955409175565940e-01  4.9454577387244308e-01 3.4447706785964710e-01 3.6957230933414209e-01  4.9457555550309917e-01 3.4468967595120198e-01 3.6959583862947765e-01  4.9461414340263510e-01 3.4496509342461529e-01 3.6962628719483520e-01  4.9465954731150380e-01 3.4528905296083451e-01 3.6966206741228125e-01  4.9471070999668543e-01 3.4565392572515191e-01 3.6970234832965271e-01  4.9476614110226197e-01 3.4604905158803362e-01 3.6974592422772207e-01  4.9482600065116467e-01 3.4647531688227967e-01 3.6979303229401117e-01  4.9488911776682487e-01 3.4692431756020004e-01 3.6984275288829016e-01  4.9495455516111664e-01 3.4738928447386919e-01 3.6989437076748166e-01  4.9502346455993701e-01 3.4787802168175541e-01 3.6994899073540299e-01  4.9516500680600023e-01 3.4887922902588792e-01 3.7006192075116751e-01  4.9523264680174783e-01 3.4935632517681342e-01 3.7011629167744026e-01  4.9530150412041263e-01 3.4984073482684530e-01 3.7017213087020467e-01  4.9537164871468220e-01 3.5033286618648884e-01 3.7022953746530840e-01  4.9544265740753218e-01 3.5082967169619877e-01 3.7028819742879232e-01  4.9551399852947697e-01 3.5132739254703998e-01 3.7034769538625439e-01  4.9558592581802452e-01 3.5182756010833177e-01 3.7040838440226809e-01  4.9565718602008724e-01 3.5232142682567208e-01 3.7046923758206979e-01  4.9572581895701945e-01 3.5279542957608206e-01 3.7052859125131138e-01  4.9578922011818094e-01 3.5323168738423338e-01 3.7058418395670834e-01  4.9584194063663656e-01 3.5359305783314399e-01 3.7063110312702197e-01  4.9590575696871203e-01 3.5402629449046719e-01 3.7069016092114554e-01  4.9598188235438412e-01 3.5453940138623569e-01 3.7076246417708719e-01  4.9609857348208447e-01 3.5532396207796235e-01 3.7087385655766220e-01  4.9651914321075907e-01 3.5813823203844358e-01 3.7127784694487509e-01  4.9673963686228906e-01 3.5960404799645168e-01 3.7149186388402200e-01  4.9696190335264717e-01 3.6107307765825547e-01 3.7171008359353624e-01  4.9719005965391150e-01 3.6257157751480701e-01 3.7193704611554973e-01  4.9742494814853250e-01 3.6410403874699809e-01 3.7217402792327686e-01  4.9766635398555675e-01 3.6566809359844138e-01 3.7242118365338545e-01  4.9791343656162540e-01 3.6725741522325622e-01 3.7267797173381761e-01  4.9816510421363125e-01 3.6886431211479281e-01 3.7294352077394544e-01  4.9841939625778936e-01 3.7047548686096599e-01 3.7321607186961070e-01  4.9867555680589043e-01 3.7208526217854310e-01 3.7349531481752180e-01  4.9892845176495737e-01 3.7366167599962691e-01 3.7377558105946651e-01  4.9917234306144431e-01 3.7516896938580852e-01 3.7405075482717465e-01  4.9959681331845557e-01 3.7775383777504656e-01 3.7454550789830221e-01  4.9986083035632423e-01 3.7933858087229833e-01 3.7486247819266361e-01  5.0015453023772249e-01 3.8108678581797623e-01 3.7522001557606571e-01  5.0046888196205663e-01 3.8294163563251660e-01 3.7560793080807875e-01  5.0079810134335634e-01 3.8486776465749001e-01 3.7601893769601330e-01  5.0113701778665376e-01 3.8683503374666595e-01 3.7644591807413569e-01  5.0148551935440688e-01 3.8884334527858000e-01 3.7688795157315336e-01  5.0214719664639473e-01 3.9264654539104799e-01 3.7771792082417804e-01  5.0234702139394982e-01 3.9380127740186904e-01 3.7796064836220672e-01  5.0247519045294931e-01 3.9455304283682691e-01 3.7810831964265723e-01  5.0255615476475279e-01 3.9503778248962645e-01 3.7819504025854095e-01  5.0259736155089640e-01 3.9529791927684055e-01 3.7823074455672501e-01  5.0261081377470695e-01 3.9539846592621214e-01 3.7823273743890556e-01  5.0260829623002312e-01 3.9540251710768404e-01 3.7821825712745100e-01  5.0261852924250860e-01 3.9545584365024528e-01 3.7823404178309067e-01  5.0267717207157714e-01 3.9574524005827472e-01 3.7833442117183302e-01  5.0279659665029008e-01 3.9633878378140358e-01 3.7853578693077117e-01  5.0298938283969630e-01 3.9729695643936991e-01 3.7885950819342290e-01  5.0327422117551879e-01 3.9870813655588444e-01 3.7933736607872515e-01  5.0366966954841275e-01 4.0065483831522325e-01 3.8000194620260175e-01  5.0420091744517059e-01 4.0324419511749732e-01 3.8089791962314096e-01  5.0491297387062462e-01 4.0667026059931388e-01 3.8210231486611912e-01  5.0591882628737905e-01 4.1143101170248153e-01 3.8380507338376951e-01  5.0979803610908214e-01 4.2914297053616407e-01 3.9039119698440022e-01  5.1134055037786219e-01 4.3587289549608849e-01 3.9303958452451782e-01  5.1269890672625429e-01 4.4159619072090628e-01 3.9540644219319715e-01  5.1387871123064577e-01 4.4639569776468219e-01 3.9750350886625441e-01  5.1484139323223754e-01 4.5018254355025278e-01 3.9925350760637257e-01  5.1580456335028113e-01 4.5374955969968173e-01 4.0108974901451833e-01  5.1661830786539031e-01 4.5659391001843602e-01 4.0270074498712061e-01  5.1785504360842960e-01 4.6079303982615943e-01 4.0517053388835816e-01  5.2265339883628759e-01 4.7615258319094395e-01 4.1486537928625855e-01  5.2481784903228534e-01 4.8254897153939419e-01 4.1930983011939532e-01  5.2680090681081870e-01 4.8805880542141150e-01 4.2343550072165381e-01  5.2870031177213861e-01 4.9301059933700231e-01 4.2744575439720967e-01  5.3055723172070901e-01 4.9753842867546566e-01 4.3142853784321739e-01  5.3240539691027566e-01 5.0174583311189913e-01 4.3545364633683431e-01  5.3430197237551191e-01 5.0576734366630616e-01 4.3964340941615704e-01  5.3843222511940170e-01 5.1364927604386557e-01 4.4892807193733103e-01  5.3977573084958630e-01 5.1596445056730000e-01 4.5199221474035206e-01  5.4079686894871815e-01 5.1761273951867570e-01 4.5434992061830293e-01  5.4154811655756818e-01 5.1874741313290473e-01 4.5611293684737308e-01  5.4234071233394199e-01 5.1977724691524729e-01 4.5806269795419935e-01  5.4294077207880076e-01 5.2042029562603975e-01 4.5961747792263968e-01  5.4366794027186705e-01 5.2112650153136486e-01 4.6153895615410501e-01  5.4448150424388986e-01 5.2183619166075768e-01 4.6372706070385855e-01  5.4534137484213085e-01 5.2249658703460611e-01 4.6608214674499865e-01  5.4623061251532767e-01 5.2308746256044647e-01 4.6855978399580139e-01  5.4713174870221004e-01 5.2359183128330911e-01 4.7111384317770066e-01  5.4802510220228362e-01 5.2399526093484405e-01 4.7369166090338488e-01  5.4888639776451009e-01 5.2429142885123559e-01 4.7622177899036838e-01  5.5050722908817118e-01 5.2455837933715255e-01 4.8113129083342016e-01  5.5147357326076163e-01 5.2453535765371728e-01 4.8415295708308131e-01  5.5248701814086909e-01 5.2438477913377557e-01 4.8738741219883536e-01  5.5353229506015034e-01 5.2409303154079678e-01 4.9079366892896376e-01  5.5459529319218115e-01 5.2365684110988842e-01 4.9433039458057160e-01  5.5566594072973474e-01 5.2307061142647926e-01 4.9797052502963995e-01  5.5673872075696307e-01 5.2233139459033928e-01 5.0169983472818802e-01  5.5780728497220744e-01 5.2143879535925330e-01 5.0550075913304349e-01  5.5886528612760267e-01 5.2039528979834437e-01 5.0935444359459892e-01  5.5991019581119239e-01 5.1919991971842738e-01 5.1325560887122090e-01  5.6093837692756021e-01 5.1785655920103391e-01 5.1719303923238258e-01  5.6194582792987569e-01 5.1637057914779938e-01 5.2115361587314724e-01  5.6293336435086450e-01 5.1473839521782982e-01 5.2514399739077855e-01  5.6389420324486061e-01 5.1296639579046366e-01 5.2914207098701749e-01  5.6483433483635836e-01 5.1104938240487618e-01 5.3317101654549337e-01  5.6659880493684267e-01 5.0691693724296960e-01 5.4108121673439136e-01  5.6740195342360322e-01 5.0477325572231646e-01 5.4485615850523483e-01  5.6817747799792417e-01 5.0253365908990533e-01 5.4861543601780749e-01  5.6893006311313266e-01 5.0017411037783865e-01 5.5238969798701243e-01  5.6966502988179590e-01 4.9768903842465706e-01 5.5619801254256607e-01  5.7039657987490555e-01 4.9502223042864529e-01 5.6011948659073674e-01  5.7115616182168971e-01 4.9203186487190254e-01 5.6434083008263680e-01  5.7288022019547724e-01 4.8442275321697975e-01 5.7448238357115256e-01  5.7344763710988544e-01 4.8161756121679372e-01 5.7802661388041721e-01  5.7390144935850695e-01 4.7921591408993403e-01 5.8097019124827964e-01  5.7428068283771583e-01 4.7707349458108100e-01 5.8352478421170195e-01  5.7460304091813030e-01 4.7513371051598258e-01 5.8578063677783221e-01  5.7487666040924812e-01 4.7338048729261661e-01 5.8777243125916911e-01  5.7510580693562519e-01 4.7181832514623767e-01 5.8950904999385501e-01  5.7529014791820721e-01 4.7048398271287728e-01 5.9096330804208996e-01  5.7550752614511747e-01 4.6876013705329017e-01 5.9278999358913109e-01  5.7563987694519614e-01 4.6760965977809088e-01 5.9397712526694213e-01  5.7579325402788106e-01 4.6620250413658854e-01 5.9540713173669790e-01  5.7617711669937854e-01 4.6236295410081030e-01 5.9921734210302313e-01  5.7632576673012648e-01 4.6073489589058825e-01 6.0079512825915304e-01  5.7645237436458829e-01 4.5926135584602562e-01 6.0220179290405007e-01  5.7656448011934192e-01 4.5787768464104295e-01 6.0350442759236400e-01  5.7666547754200059e-01 4.5655430136721958e-01 6.0473366275204576e-01  5.7675847967791449e-01 4.5526280286694865e-01 6.0591828354838206e-01  5.7684705133655378e-01 4.5395803633531434e-01 6.0710059100979719e-01  5.7703120312479739e-01 4.5099046673041182e-01 6.0974293587445161e-01  5.7708720081741249e-01 4.5000337951368202e-01 6.1060758587524433e-01  5.7713003316436362e-01 4.4920874393893945e-01 6.1129756907627908e-01  5.7716423370390868e-01 4.4854331664625247e-01 6.1187092148313604e-01  5.7719207485132817e-01 4.4797703133587569e-01 6.1235554658857461e-01  5.7721495007119694e-01 4.4749212915860348e-01 6.1276804240525973e-01  5.7723375469747606e-01 4.4707784400407713e-01 6.1311858662927976e-01  5.7724913938424816e-01 4.4672666497569080e-01 6.1341433222956188e-01  5.7726164627091803e-01 4.4643202283702738e-01 6.1366145658333948e-01  5.7727164065607739e-01 4.4618996245686682e-01 6.1386377447114571e-01  5.7727944391443475e-01 4.4599654673384331e-01 6.1402497543316414e-01  5.7728525687259169e-01 4.4584978431958239e-01 6.1414702182216452e-01  5.7728925262093966e-01 4.4574756870392718e-01 6.1423189060886896e-01  5.7729157818505838e-01 4.4568758245855122e-01 6.1428164787792983e-01  5.7729232627817939e-01 4.4566628804153813e-01 6.1429911871106146e-01  5.7729252846197832e-01 4.4565444470181459e-01 6.1430830419814220e-01  5.7729299490803954e-01 4.4563093723660302e-01 6.1432669724593347e-01  5.7729373057002231e-01 4.4559539165554535e-01 6.1435458318610203e-01  5.7729490234710323e-01 4.4554251964477387e-01 6.1439625326653735e-01  5.7729800172341506e-01 4.4540781492292492e-01 6.1450268759871784e-01  5.7729954699651875e-01 4.4537980252376236e-01 6.1452711119655112e-01  5.7730105916528307e-01 4.4534373361306995e-01 6.1455734659945438e-01  5.7730218376631481e-01 4.4531562599507196e-01 6.1458077269305356e-01  5.7730288853417444e-01 4.4529775022727758e-01 6.1459564505310160e-01  5.7730282117574228e-01 4.4529946384068864e-01 6.1459421984205587e-01  5.7730186949748097e-01 4.4532368559596142e-01 6.1457407622252780e-01  5.7730024848997075e-01 4.4536552436115967e-01 6.1453934185277004e-01  5.7729634671970231e-01 4.4535678752430657e-01 6.1453580550980946e-01  5.7729624790907019e-01 4.4530146453640901e-01 6.1457602123638155e-01  5.7729592758816273e-01 4.4524777974225821e-01 6.1461447455890139e-01  5.7729519694298870e-01 4.4519918283543336e-01 6.1464816110782816e-01  5.7729391706513611e-01 4.4515832050759474e-01 6.1467479057294250e-01  5.7729197547298650e-01 4.4512749712579758e-01 6.1469238963149775e-01  5.7728923742283345e-01 4.4510888019240552e-01 6.1469902812756572e-01  5.7728552241442965e-01 4.4510469993476132e-01 6.1469261278768217e-01  5.7728047340039768e-01 4.4511881863430952e-01 6.1466940475089982e-01  5.7726383727678499e-01 4.4523236748020800e-01 6.1454386944826866e-01  5.7725580613019711e-01 4.4530898703383026e-01 6.1446729399160838e-01  5.7724777547019557e-01 4.4539605160162443e-01 6.1438305939431659e-01  5.7723962897380421e-01 4.4549285414558026e-01 6.1429138397817173e-01  5.7723134525235875e-01 4.4559803102991186e-01 6.1419320959758716e-01  5.7722296941870510e-01 4.4570992888838418e-01 6.1408986076234817e-01  5.7721456529572779e-01 4.4582671441720600e-01 6.1398284242439605e-01  5.7720621637640102e-01 4.4594638658941094e-01 6.1387383367505688e-01  5.7719802587025015e-01 4.4606671443331858e-01 6.1376473373885687e-01  5.7719014246054612e-01 4.4618485444666250e-01 6.1365800796507641e-01  5.7718275506620864e-01 4.4629734623413431e-01 6.1355667821319004e-01  5.7717618588823316e-01 4.4639868377892938e-01 6.1346560739162448e-01  5.7716653515644201e-01 4.4655016451610924e-01 6.1332989326390619e-01  5.7715944361177285e-01 4.4666305971250664e-01 6.1322899423190791e-01  5.7715084430446406e-01 4.4680077483717134e-01 6.1310602474054610e-01  5.7714034963391536e-01 4.4696958259312025e-01 6.1295537730463512e-01  5.7711784022475043e-01 4.4733208403231095e-01 6.1263181211544948e-01  5.7711588676746228e-01 4.4736329621808141e-01 6.1260389155002937e-01  5.7711528113899357e-01 4.4737288995341146e-01 6.1259528977612487e-01  5.7711526923444423e-01 4.4737307832126788e-01 6.1259512080923162e-01  5.7711552534734378e-01 4.4736911187585710e-01 6.1259869740759409e-01  5.7711537877740571e-01 4.4737176160824632e-01 6.1259639196860582e-01  5.7711391200487805e-01 4.4739583972788488e-01 6.1257498256618559e-01  5.7710670291990707e-01 4.4751319335059220e-01 6.1247041755646991e-01  5.7710374383414798e-01 4.4756119499852359e-01 6.1242760211799774e-01  5.7710180406730571e-01 4.4759254536005932e-01 6.1239960929143478e-01  5.7710070236885391e-01 4.4761029326598722e-01 6.1238374736145251e-01  5.7710035025395023e-01 4.4761596208502091e-01 6.1237867986386652e-01  5.7710057046461505e-01 4.4761244219406121e-01 6.1238183236029609e-01  5.7710118962079970e-01 4.4760255176204811e-01 6.1239069161098714e-01  5.7710192006993100e-01 4.4759104753790013e-01 6.1240103411273183e-01  5.7709551813386062e-01 4.4769713521401361e-01 6.1230691310302121e-01  5.7708985194274520e-01 4.4778999566872735e-01 6.1222429131066314e-01  5.7708481909806975e-01 4.4787238098790050e-01 6.1215096455486739e-01  5.7708051850147801e-01 4.4794273231009296e-01 6.1208833687938968e-01  5.7707719169372440e-01 4.4799711955609572e-01 6.1203991398762536e-01  5.7707377700127638e-01 4.4805289159360068e-01 6.1199025868674406e-01  5.7707114287034278e-01 4.4809584521893514e-01 6.1195201536604094e-01  5.7706780482