<?xml version="1.0"?>
<VTKFile type="UnstructuredGrid"  version="0.1"  >
<UnstructuredGrid>
<Piece  NumberOfPoints="7288" NumberOfCells="14083">
<Points>
<DataArray  type="Float64"  NumberOfComponents="3"  format="ascii">239.8 188 0  250.2 180 0  258.2 172.4 0  257 169.4 0  259.9 157.4 0  258.7 150.3 0  261 143.5 0  251.7 144.4 0  250 138.7 0  247 138.1 0  245.2 130.8 0  247.3 126.4 0  242.7 118.6 0  231.2 107.7 0  226 102.4 0  226.5 93.90000000000001 0  224.5 91.19999999999999 0  224.5 84.09999999999999 0  234.5 73.80000000000001 0  228.4 68.90000000000001 0  230 70 0  233.4 68 0  222.7 61.5 0  220.6 45.5 0  223.4 49.40000000000001 0  224 47 0  221.8 43.09999999999999 0  221 38.40000000000001 0  219.5 38.5 0  219.4 41.69999999999999 0  217.1 36.90000000000001 0  209.7 36 0  209.5 31.69999999999999 0  205.1 29.90000000000001 0  201.5 30.40000000000001 0  199.2 38.69999999999999 0  201.8 41.40000000000001 0  194.8 53.80000000000001 0  196.1 57.69999999999999 0  193 59 0  191.4 66.09999999999999 0  193.5 66.5 0  194.1 64.40000000000001 0  195.6 64.69999999999999 0  195.4 72.40000000000001 0  199.5 77.30000000000001 0  197.7 86.90000000000001 0  200.6 87.5 0  201.5 91 0  198 94.80000000000001 0  198.6 100 0  197.3 105.4 0  198 109.5 0  197 112.7 0  198.3 116.1 0  201.3 122 0  207.2 121 0  208.1 126.7 0  205.6 127.9 0  209.1 134.9 0  210.9 144.4 0  210.1 147.9 0  213 148.4 0  215.4 149.3 0  215.1 152.8 0  219.9 159.7 0  220.3 163.2 0  218.7 164.9 0  219.9 166.7 0  221.9 169.7 0  220 170.3 0  224.9 174.7 0  229.8 177.4 0  229.7 181 0  228 172.9 0  239 178 0  240.4 180 0  239 181.5 0  241.2 185.9 0  242.95 187.99 0  240.5875 187.9975 0  241.375 187.995 0  242.1625 187.9925 0  243.6090909090879 187.2636363636397 0  244.2681818181765 186.5372727272785 0  244.9272727272692 185.810909090913 0  245.5863636363531 185.0845454545571 0  246.245454545445 184.3581818181923 0  246.9045454545351 183.6318181818295 0  247.5636363636303 182.9054545454612 0  248.2227272727197 182.1790909090992 0  248.8818181818179 181.4527272727275 0  249.5409090909066 180.7263636363664 0  250.8666666666961 179.3666666666387 0  251.5333333334033 178.7333333332668 0  252.2000000000994 178.0999999999055 0  252.8666666668011 177.466666666539 0  253.5333333335083 176.8333333331671 0  254.2000000002044 176.1999999998058 0  254.8666666669005 175.5666666664445 0  255.5333333336077 174.9333333330727 0  256.2000000002685 174.2999999997449 0  256.8666666668457 173.6666666664966 0  257.5333333334283 173.033333333243 0  257.9000000000077 171.6500000000191 0  257.6000000000015 170.9000000000038 0  257.2999999999954 170.1499999999885 0  257.2230769230778 168.4769230769195 0  257.4461538461543 167.5538461538442 0  257.6692307692309 166.6307692307688 0  257.8923076923074 165.7076923076935 0  258.115384615384 164.7846153846181 0  258.3384615384605 163.8615384615427 0  258.5615384615395 162.9384615384572 0  258.784615384616 162.0153846153819 0  259.0076923076926 161.0923076923065 0  259.2307692307691 160.1692307692311 0  259.4538461538457 159.2461538461558 0  259.6769230769222 158.3230769230804 0  259.750000000001 156.512500000006 0  259.6000000000014 155.6250000000082 0  259.4500000000029 154.7375000000176 0  259.3000000000018 153.8500000000108 0  259.1500000000007 152.962500000004 0  259.0000000000004 152.0750000000026 0  258.849999999999 151.187499999994 0  258.9875000000052 149.4499999999846 0  259.275000000002 148.5999999999941 0  259.5624999999954 147.7500000000135 0  259.849999999995 146.900000000015 0  260.1374999999945 146.0500000000164 0  260.4249999999913 145.2000000000259 0  260.7124999999948 144.3500000000154 0  260.0700000000398 143.5899999999961 0  259.1400000000573 143.6799999999944 0  258.2100000000351 143.7699999999966 0  257.2800000000262 143.8599999999975 0  256.350000000011 143.9499999999989 0  255.4199999999881 144.0400000000011 0  254.4899999999726 144.1300000000026 0  253.5599999999944 144.2200000000005 0  252.6300000000009 144.3099999999999 0  251.4166666666658 143.4499999999971 0  251.1333333333388 142.5000000000182 0  250.8500000000015 141.5500000000051 0  250.5666666666612 140.5999999999818 0  250.2833333333342 139.6500000000029 0  249.2500000000005 138.5500000000001 0  248.5000000000011 138.4000000000002 0  247.7499999999995 138.2499999999999 0  246.7750000000005 137.1875000000023 0  246.5500000000021 136.2750000000085 0  246.3250000000036 135.3625000000147 0  246.1000000000042 134.450000000017 0  245.8750000000022 133.5375000000088 0  245.650000000003 132.6250000000124 0  245.4250000000046 131.7125000000187 0  245.619999999996 129.9200000000084 0  246.0399999999992 129.0400000000017 0  246.4599999999987 128.1600000000028 0  246.8800000000001 127.2799999999997 0  246.8399999999988 125.6199999999979 0  246.3799999999984 124.8399999999973 0  245.9199999999991 124.0599999999985 0  245.4600000000036 123.2800000000062 0  245.0000000000049 122.5000000000082 0  244.5400000000036 121.7200000000062 0  244.0800000000033 120.9400000000056 0  243.6200000000016 120.1600000000027 0  243.1600000000012 119.3800000000021 0  241.9812499999996 117.9187499999997 0  241.2625000000007 117.2375000000007 0  240.5437500000017 116.5562500000017 0  239.8250000000041 115.875000000004 0  239.1062500000066 115.1937500000063 0  238.3875000000076 114.5125000000072 0  237.6687500000087 113.8312500000082 0  236.9500000000083 113.1500000000079 0  236.231250000008 112.4687500000076 0  235.512500000009 111.7875000000085 0  234.7937500000045 111.1062500000043 0  234.0750000000042 110.4250000000039 0  233.3562500000066 109.7437500000062 0  232.6375000000021 109.062500000002 0  231.9187500000031 108.381250000003 0  230.5500000000004 107.0375000000004 0  229.9000000000021 106.3750000000021 0  229.2500000000038 105.7125000000039 0  228.6000000000041 105.0500000000042 0  227.9500000000018 104.3875000000018 0  227.2999999999952 103.7249999999951 0  226.6500000000024 103.0625000000024 0  226.0555555555555 101.4555555555556 0  226.1111111111111 100.5111111111111 0  226.1666666666667 99.56666666666668 0  226.2222222222222 98.62222222222223 0  226.2777777777778 97.67777777777778 0  226.3333333333333 96.73333333333335 0  226.3888888888889 95.78888888888889 0  226.4444444444445 94.84444444444446 0  226 93.22499999999999 0  225.5000000000026 92.55000000000358 0  225.0000000000026 91.87500000000358 0  224.5 90.31250000000068 0  224.5 89.4250000000097 0  224.5 88.53750000001317 0  224.5 87.65000000001388 0  224.5 86.76250000001457 0  224.5 85.87500000001248 0  224.5 84.9874999999993 0  225.1666666666659 83.41333333333409 0  225.8333333333319 82.72666666666818 0  226.4999999999978 82.04000000000228 0  227.1666666666649 81.35333333333514 0  227.8333333333301 80.66666666667 0  228.4999999999942 79.980000000006 0  229.1666666666601 79.2933333333401 0  229.8333333333316 78.60666666666847 0  230.4999999999975 77.92000000000257 0  231.1666666666644 77.23333333333572 0  231.8333333333295 76.54666666667057 0  232.4999999999972 75.86000000000287 0  233.1666666666681 75.17333333333181 0  233.8333333333368 74.48666666666306 0  233.7499999999995 73.16666666666629 0  233.0000000000018 72.53333333333488 0  232.2500000000014 71.90000000000116 0  231.5000000000009 71.26666666666743 0  230.7500000000005 70.63333333333372 0  229.233333333333 68.75000000000006 0  230.0666666666665 68.60000000000004 0  230.8999999999995 68.45000000000009 0  231.7333333333325 68.30000000000015 0  232.566666666667 68.14999999999995 0  232.5499999999897 68.50000000000607 0  231.7 69 0  230.8500000000103 69.49999999999393 0  227.8300000000008 68.16000000000106 0  227.2600000000064 67.42000000000837 0  226.6900000000077 66.68000000001001 0  226.1200000000024 65.94000000000314 0  225.5500000000108 65.20000000001409 0  224.9800000000098 64.46000000001268 0  224.4100000000007 63.72000000000098 0  223.8399999999971 62.97999999999621 0  223.2699999999993 62.23999999999915 0  222.753846153846 60.56923076923239 0  222.8076923076921 59.63846153846478 0  222.8615384615381 58.70769230769827 0  222.9153846153842 57.77692307693071 0  222.9692307692302 56.84615384616315 0  223.0230769230761 55.91538461539836 0  223.0769230769224 54.98461538462665 0  223.1307692307688 54.05384615385345 0  223.184615384615 53.12307692308312 0  223.2384615384611 52.19230769231556 0  223.2923076923071 51.26153846154906 0  223.3461538461533 50.33076923077847 0  222.8400000000024 48.62000000000327 0  222.2800000000047 47.84000000000661 0  221.7200000000005 47.06000000000071 0  221.1600000000003 46.28000000000039 0  221.4500000000116 45.87500000000512 0  222.3 46.25 0  223.1499999999884 46.62499999999488 0  223.5600000000055 46.22000000000981 0  223.1199999999987 45.43999999999767 0  222.6800000000061 44.66000000001075 0  222.2399999999969 43.8799999999944 0  221.6400000000004 42.16000000000253 0  221.4800000000009 41.22000000000548 0  221.3200000000014 40.28000000000801 0  221.1600000000009 39.34000000000556 0  220.25 38.45 0  219.4749999999999 39.30000000000165 0  219.45 40.09999999999999 0  219.425 40.90000000000112 0  219.0166666666641 40.89999999999463 0  218.6333333333375 40.10000000000875 0  218.2500000000016 39.30000000000339 0  217.8666666666635 38.49999999999351 0  217.483333333337 37.70000000000762 0  216.1750000000165 36.78750000000201 0  215.2500000000275 36.67500000000335 0  214.3250000000385 36.56250000000469 0  213.4000000000277 36.45000000000337 0  212.4750000000059 36.33750000000072 0  211.5499999999838 36.22499999999803 0  210.6249999999835 36.11249999999799 0  209.6600000000001 35.14000000000318 0  209.6200000000001 34.28000000000268 0  209.5800000000001 33.42000000000284 0  209.5399999999998 32.55999999999681 0  208.6200000000117 31.34000000000476 0  207.7400000000138 30.98000000000564 0  206.8600000000162 30.62000000000662 0  205.9800000000174 30.26000000000711 0  204.2000000000054 30.02499999999925 0  203.2999999999946 30.15000000000076 0  202.3999999999945 30.27500000000076 0  201.2444444444438 31.32222222222468 0  200.9888888888895 32.24444444
[...]
<PointData  Vectors="f_12"> 
<DataArray  type="Float64"  Name="f_12"  NumberOfComponents="3" format="ascii">6.2386699538740553e-01 3.5385765080077825e-01 8.3852158579435265e-01  6.1709049908983338e-01 3.2372804463368304e-01 8.4955878635644277e-01  6.0951352708013240e-01 2.9294395494202063e-01 8.5624819166406596e-01  6.0656202526909286e-01 2.8200675635508959e-01 8.5719226267777615e-01  5.8974120819358555e-01 2.2577353910198755e-01 8.4951914901974479e-01  5.8151466110041472e-01 2.0234441777225284e-01 8.3791478615580184e-01  5.7908624448973833e-01 1.9575069765069592e-01 8.3362845042404832e-01  5.7062019970601885e-01 1.7554072343616392e-01 8.1531390681506877e-01  5.6016689687708043e-01 1.5284672441552877e-01 7.8713670542292125e-01  5.5606689737072834e-01 1.4502288217375223e-01 7.7402543803182688e-01  5.4409053682561570e-01 1.2445907006648727e-01 7.3093463811406523e-01  5.4103918452317790e-01 1.1982564947526828e-01 7.1875369763244390e-01  5.3848162521726617e-01 1.1619551371427958e-01 7.0813078263025397e-01  5.3690376183341060e-01 1.1403079159598820e-01 7.0141387645482511e-01  5.3770460418332322e-01 1.1508738417169091e-01 7.0482440654707001e-01  5.3854663994648599e-01 1.1622123386104075e-01 7.0838054637804126e-01  5.3875506131396234e-01 1.1650715431724321e-01 7.0925546470885892e-01  5.3891693482546543e-01 1.1673664718606024e-01 7.0993600960622671e-01  5.3850296554030908e-01 1.1617931344665373e-01 7.0820288980168822e-01  5.3892836318225545e-01 1.1676589699982852e-01 7.0998742018304484e-01  5.3874820010501090e-01 1.1651682204284466e-01 7.0923311678462053e-01  5.3869387716658890e-01 1.1644212637851432e-01 7.0900571377765143e-01  5.4109786489947509e-01 1.1983010794231790e-01 7.1894483442781942e-01  5.4521519279598096e-01 1.2596813441473115e-01 7.3528623231820189e-01  5.4412760130171456e-01 1.2430184990610438e-01 7.3105876340288367e-01  5.4542338170490079e-01 1.2628789207027999e-01 7.3609123759194250e-01  5.4553016241865959e-01 1.2645449569381514e-01 7.3650130807521219e-01  5.4574973297861984e-01 1.2679533008088725e-01 7.3734412602418975e-01  5.4574976813918907e-01 1.2679539294111264e-01 7.3734426056666924e-01  5.4573010001039601e-01 1.2676619893858135e-01 7.3726836078315428e-01  5.4635311312380153e-01 1.2774385770621188e-01 7.3964647430616759e-01  5.4725539744091434e-01 1.2918159885252942e-01 7.4305084291063861e-01  5.4784751831292910e-01 1.3013317675078229e-01 7.4526468209279728e-01  5.4799479711508037e-01 1.3037143935273274e-01 7.4581193406695268e-01  5.4800874628069429e-01 1.3039405438955218e-01 7.4586370218021147e-01  5.4745259361492338e-01 1.2949727427526744e-01 7.4379172539195249e-01  5.4671350561278509e-01 1.2832050511672929e-01 7.4100784955084265e-01  5.4370530370328463e-01 1.2365840047974481e-01 7.2939818030424775e-01  5.4298314415746984e-01 1.2257685475778507e-01 7.2653691153004241e-01  5.4259983897099295e-01 1.2200569855612994e-01 7.2501017240253429e-01  5.4164278953661671e-01 1.2060014433774763e-01 7.2115917909032690e-01  5.4166596865632988e-01 1.2063416485770308e-01 7.2125283740955870e-01  5.4222197479300238e-01 1.2144867713536679e-01 7.2349490515793202e-01  5.4202932515451452e-01 1.2116630189691456e-01 7.2271903470198950e-01  5.4132202700979914e-01 1.2013461464288794e-01 7.1985736471065342e-01  5.4068950594707166e-01 1.1922181549600544e-01 7.1727447361017826e-01  5.4028797879056323e-01 1.1864210495538263e-01 7.1562310849740318e-01  5.4020307714321059e-01 1.1852108986738727e-01 7.1527298104553982e-01  5.4000421485249583e-01 1.1823670145783970e-01 7.1445129651378259e-01  5.3991352919432711e-01 1.1810621726150256e-01 7.1407559184599434e-01  5.3973157928824700e-01 1.1785137060201274e-01 7.1332246782000119e-01  5.3949052478217052e-01 1.1751626382961131e-01 7.1232278718191389e-01  5.3929617444378697e-01 1.1724825404730191e-01 7.1151490348249191e-01  5.3918399781589454e-01 1.1709429277928314e-01 7.1104796379301349e-01  5.3909235948970979e-01 1.1696937083845674e-01 7.1066617574381541e-01  5.3898738822040848e-01 1.1682809886919741e-01 7.1022900655214183e-01  5.3908701072424803e-01 1.1697709505823303e-01 7.1064914366214005e-01  5.4050300228259940e-01 1.1898955804741511e-01 7.1652090890939613e-01  5.4090697500670015e-01 1.1956653462790529e-01 7.1818144982755117e-01  5.4324875116037197e-01 1.2303784762353011e-01 7.2760582757884396e-01  5.4949301237499659e-01 1.3298170702979545e-01 7.5137132694628794e-01  5.5063460755460436e-01 1.3490086562115330e-01 7.5551022481001218e-01  5.5153914504917323e-01 1.3650184380881744e-01 7.5870188428421437e-01  5.5474381062805622e-01 1.4233048428102801e-01 7.6964904341179008e-01  5.5921196122891770e-01 1.5080358859644227e-01 7.8413937465835437e-01  5.7195709302869358e-01 1.7866192518735116e-01 8.1853930123805663e-01  5.8014222026739304e-01 1.9898901291849072e-01 8.3542747259057659e-01  5.8263300352304492e-01 2.0550156595681021e-01 8.3979701751942704e-01  5.8425321911075900e-01 2.0994071938449785e-01 8.4230025482534787e-01  5.8738327561307413e-01 2.1879182606627232e-01 8.4666395470452138e-01  5.8656673191013764e-01 2.1638601084344555e-01 8.4563677105045110e-01  5.9232963119160875e-01 2.3355654647031340e-01 8.5219028231178806e-01  6.0389355576085635e-01 2.7204400175724408e-01 8.5759737118483814e-01  6.0542718624246439e-01 2.7740976011456958e-01 8.5757859459368824e-01  5.9536358530765532e-01 2.4338457499152047e-01 8.5443101362515717e-01  6.1111398769305847e-01 2.9977122889635299e-01 8.5491779183075001e-01  6.1762110281992266e-01 3.2648947024696207e-01 8.4851092161107444e-01  6.2009352577114318e-01 3.3703045385400027e-01 8.4517037135955386e-01  6.2317996112680418e-01 3.5073299809976499e-01 8.3984454696273714e-01  6.2358930740895824e-01 3.5258283656150846e-01 8.3907042061237813e-01  6.2383170092414331e-01 3.5369600575596732e-01 8.3859129026752055e-01  6.2375506323810559e-01 3.5334442062985311e-01 8.3874294879777500e-01  6.2366698646334418e-01 3.5293965443873321e-01 8.3891735598387174e-01  6.2339418384411049e-01 3.5169023396281673e-01 8.3944920578670135e-01  6.2304501339428220e-01 3.5009652274691977e-01 8.4011760575327687e-01  6.2259310317631067e-01 3.4804025333455285e-01 8.4096482883507007e-01  6.2206244098048669e-01 3.4563565691362547e-01 8.4193282567282079e-01  6.2146644145791596e-01 3.4294854950003456e-01 8.4298545238449207e-01  6.2082250642155967e-01 3.4006206809794221e-01 8.4408057733945974e-01  6.2013231969658666e-01 3.3698954239180900e-01 8.4520539659333560e-01  6.1940977220577365e-01 3.3379668031186749e-01 8.4632940657797384e-01  6.1866641517737808e-01 3.3053849534271429e-01 8.4742727189563616e-01  6.1789436775151185e-01 3.2718567487079320e-01 8.4850426359972808e-01  6.1633887737509097e-01 3.2052475325060048e-01 8.5048540549527463e-01  6.1561099821026743e-01 3.1745243564861880e-01 8.5132601203833980e-01  6.1488540753607790e-01 3.1442102159378149e-01 8.5210793269400964e-01  6.1416225854491535e-01 3.1143062080772721e-01 8.5283289478661428e-01  6.1344649412894270e-01 3.0850110016898807e-01 8.5349726505244683e-01  6.1274371645581960e-01 3.0565351507578503e-01 8.5409961473566376e-01  6.1205388610399458e-01 3.0288683928849047e-01 8.5464301263381204e-01  6.1138887723954682e-01 3.0024593320519138e-01 8.5512327460768844e-01  6.1076615179691585e-01 2.9779644829762608e-01 8.5553446268784950e-01  6.1020784889172230e-01 2.9562009295700786e-01 8.5587213308671362e-01  6.0975794913174575e-01 2.9388117199010799e-01 8.5612221939588751e-01  6.0925641195532676e-01 2.9197688081590650e-01 8.5636005512210878e-01  6.0869470359099365e-01 2.8987687307939841e-01 8.5658162386255710e-01  6.0784968198961631e-01 2.8674130333800696e-01 8.5686418467434367e-01  6.0489956912139276e-01 2.7596512725552930e-01 8.5744629318523946e-01  6.0342071553439303e-01 2.7067108781886734e-01 8.5749056750972763e-01  6.0198905737079422e-01 2.6562692500389939e-01 8.5735809494415527e-01  6.0058159850863779e-01 2.6074678453519862e-01 8.5706153472731217e-01  5.9919628069817366e-01 2.5601990492302967e-01 8.5661078558277615e-01  5.9783629020934126e-01 2.5145300723754460e-01 8.5601754185701351e-01  5.9650720939249324e-01 2.4706020988346095e-01 8.5529541493750749e-01  5.9521420550243331e-01 2.4285243402449644e-01 8.5446124348045105e-01  5.9396692032763165e-01 2.3885583398018737e-01 8.5353340458111393e-01  5.9276860549902033e-01 2.3507396634140382e-01 8.5253026245185093e-01  5.9163815123054597e-01 2.3155746096690616e-01 8.5148604615836965e-01  5.9059722902623268e-01 2.2836446899832102e-01 8.5044085980512618e-01  5.8891875902987390e-01 2.2332227829953818e-01 8.4857100042309097e-01  5.8794784077661755e-01 2.2046422359402468e-01 8.4738752488818803e-01  5.8690987002591444e-01 2.1744696328378083e-01 8.4604960041179089e-01  5.8584253141263865e-01 2.1438395543977287e-01 8.4459699462110882e-01  5.8476611864437156e-01 2.1133461407985971e-01 8.4305243686984355e-01  5.8369500257282292e-01 2.0833804731853234e-01 8.4143699897311042e-01  5.8262675190163438e-01 2.0538531303160013e-01 8.3974889975965439e-01  5.8062917092333211e-01 1.9993642956840710e-01 8.3640439409696310e-01  5.8001956003563715e-01 1.9828912773892363e-01 8.3533291502678186e-01  5.7961233046176963e-01 1.9719016357391383e-01 8.3460081228543370e-01  5.7934056795833333e-01 1.9645607215425137e-01 8.3410389629969206e-01  5.7918183314506022e-01 1.9602389271854370e-01 8.3380966157542979e-01  5.7910600156305869e-01 1.9581317318344019e-01 8.3366720222553259e-01  5.7908492752124752e-01 1.9575005591954606e-01 8.3362653766386297e-01  5.7906296812963443e-01 1.9569385249130822e-01 8.3358565699085907e-01  5.7896187964252155e-01 1.9544376559334187e-01 8.3339839572359398e-01  5.7874834828044952e-01 1.9491283570602630e-01 8.3299904098633004e-01  5.7840061548706945e-01 1.9404868846742665e-01 8.3234015544791895e-01  5.7788741937632970e-01 1.9277758743450782e-01 8.3134960579355821e-01  5.7718276972310023e-01 1.9104326776547073e-01 8.2995650649921238e-01  5.7625604864576740e-01 1.8878497835479505e-01 8.2806623813660918e-01  5.7504816648297341e-01 1.8588070276466229e-01 8.2550455803466694e-01  5.7339803594445393e-01 1.8198000088620953e-01 8.2183342545483085e-01  5.6742660721351379e-01 1.6831289021868046e-01 8.0736819040319951e-01  5.6523575879848420e-01 1.6348176364161740e-01 8.0161097706601381e-01  5.6342690802367901e-01 1.5959480847207599e-01 7.9663020216926772e-01  5.6195015037183749e-01 1.5649393609399098e-01 7.9241289665004722e-01  5.6081312891191204e-01 1.5415232180954255e-01 7.8907630597720735e-01  5.5979150768017250e-01 1.5211024354084079e-01 7.8597660468873010e-01  5.5901019350212522e-01 1.5059500114820115e-01 7.8353006247626267e-01  5.5786689949863599e-01 1.4841033627266290e-01 7.7988338910221977e-01  5.5368534847618411e-01 1.4063252568642334e-01 7.6607354149579476e-01  5.5193384692866343e-01 1.3748491843783975e-01 7.6004960744395444e-01  5.5041732390592701e-01 1.3482767002594895e-01 7.5469263978054935e-01  5.4904318902188676e-01 1.3247763728225123e-01 7.4972352301314082e-01  5.4777077349247782e-01 1.3035170715377173e-01 7.4502459464431081e-01  5.4656732925231366e-01 1.2838446065497555e-01 7.4049627171326082e-01  5.4538922015301183e-01 1.2649804111224075e-01 7.3598637776637998e-01  5.4295781843291790e-01 1.2271065113341965e-01 7.2646857951489963e-01  5.4220080611458565e-01 1.2155915811102602e-01 7.2344939740584713e-01  5.4164429617078680e-01 1.2072314476358764e-01 7.2120951584943171e-01  5.4125032144149199e-01 1.2013718202969027e-01 7.1961318582104439e-01  5.4087753909901637e-01 1.1959007173892078e-01 7.1809184072523691e-01  5.4063157401466977e-01 1.1923397759076244e-01 7.1708156497035003e-01  5.4034917033326546e-01 1.1882762675736036e-01 7.1591793413753113e-01  5.4004874745144393e-01 1.1839785223364689e-01 7.1467606541683193e-01  5.3974881027141597e-01 1.1797126365130729e-01 7.1343212127433753e-01  5.3945530868961911e-01 1.1755617946825811e-01 7.1221086290639934e-01  5.3917447121774065e-01 1.1716113365352158e-01 7.1103859837694539e-01  5.3891345145819880e-01 1.1679583678667489e-01 7.0994578650695628e-01  5.3867761270315828e-01 1.1646733309614730e-01 7.0895566262646148e-01  5.3828520788398893e-01 1.1592435493661818e-01 7.0730189667940679e-01  5.3808187232047222e-01 1.1564477985389290e-01 7.0644173218350448e-01  5.3788786607578665e-01 1.1537896300529873e-01 7.0561920837175973e-01  5.3770597516575536e-01 1.1513054982824882e-01 7.0484635969553611e-01  5.3753895784118821e-01 1.1490305493490831e-01 7.0413530101082544e-01  5.3738918181798823e-01 1.1469948909752524e-01 7.0349644919785659e-01  5.3725684403237861e-01 1.1451990232688689e-01 7.0293101178569506e-01  5.3714272777553496e-01 1.1436515903434706e-01 7.0244266847291004e-01  5.3704797677456562e-01 1.1423661977404125e-01 7.0203661596569755e-01  5.3697181042690223e-01 1.1413309820088378e-01 7.0170975939602032e-01  5.3691423878737621e-01 1.1405448635638794e-01 7.0146235079514030e-01  5.3687579265155516e-01 1.1400140478719437e-01 7.0129681442536029e-01  5.3685472794511868e-01 1.1397146512436149e-01 7.0120576961151249e-01  5.3685390399947230e-01 1.1396843505216639e-01 7.0120153160309850e-01  5.3686996269961773e-01 1.1398783069423919e-01 7.0126969155849428e-01  5.3695063444838320e-01 1.1409129274285545e-01 7.0161405361025753e-01  5.3701137621763551e-01 1.1417033969019037e-01 7.0187349617730610e-01  5.3708546866493101e-01 1.1426727670993939e-01 7.0218985872315987e-01  5.3717319129064200e-01 1.1438254826900851e-01 7.0256415427113938e-01  5.3727457250052368e-01 1.1451625830055465e-01 7.0299632799975309e-01  5.3739070437952108e-01 1.1466993681090386e-01 7.0349080968816136e-01  5.3752677427267403e-01 1.1485058587995464e-01 7.0406938182976997e-01  5.3787764489956358e-01 1.1531847897729695e-01 7.0555795835990809e-01  5.3800570420325067e-01 1.1549000642268249e-01 7.0609999625616038e-01  5.3811542222824138e-01 1.1563739899242360e-01 7.0656373699525499e-01  5.3821310572687575e-01 1.1576899125584304e-01 7.0697608923285360e-01  5.3830103245568062e-01 1.1588774764389097e-01 7.0734684852542107e-01  5.3837953651805237e-01 1.1599403842578836e-01 7.0767755867292292e-01  5.3844831683414518e-01 1.1608738178527035e-01 7.0796706785843988e-01  5.3850606627159869e-01 1.1616592939523518e-01 7.0820997909636596e-01  5.3858047149008781e-01 1.1626748002014872e-01 7.0852267336224395e-01  5.3862940255059122e-01 1.1633448649644801e-01 7.0872814813968210e-01  5.3868642930996102e-01 1.1641274230320568e-01 7.0896751093123089e-01  5.3881843112732486e-01 1.1659462150496704e-01 7.0952126583526065e-01  5.3886179367449294e-01 1.1665474158442567e-01 7.0970312793667822e-01  5.3889367018764778e-01 1.1669921292231396e-01 7.0983683817642607e-01  5.3891666884607248e-01 1.1673160487321639e-01 7.0993337090899333e-01  5.3893066241619136e-01 1.1675173747436009e-01 7.0999223201383699e-01  5.3893748688129228e-01 1.1676214012539467e-01 7.1002112033104359e-01  5.3893485578061595e-01 1.1675970377022306e-01 7.1001049320753384e-01  5.3887903360641942e-01 1.1668618403436402e-01 7.0977790703430799e-01  5.3884039523957072e-01 1.1663434496071035e-01 7.0961652939896280e-01  5.3880092521932654e-01 1.1658123666984974e-01 7.0945154492624773e-01  5.3876147441009636e-01 1.1652807868514595e-01 7.0928652901642009e-01  5.3872293846664221e-01 1.1647611749345646e-01 7.0912524308682745e-01  5.3868608002995877e-01 1.1642640361112194e-01 7.0897089468324703e-01  5.3865146962738830e-01 1.1637971630381318e-01 7.0882588762218079e-01  5.3861956071152728e-01 1.1633667040650562e-01 7.0869213680362708e-01  5.3859083620547710e-01 1.1629792083760172e-01 7.0857168396637094e-01  5.3856560873048387e-01 1.1626388636316694e-01 7.0846585525459660e-01  5.3854428628618023e-01 1.1623511844889339e-01 7.0837637886413540e-01  5.3852710189563135e-01 1.1621192711043742e-01 7.0830424590424312e-01  5.3851437109273270e-01 1.1619473837261302e-01 7.0825079376854327e-01  5.3850652507721752e-01 1.1618414073083669e-01 7.0821784500618989e-01  5.3850993986424200e-01 1.1618887800326960e-01 7.0823222512905804e-01  5.3852988844923466e-01 1.1621626179565896e-01 7.0831612377084785e-01  5.3856341320991308e-01 1.1626231700358962e-01 7.0845707797507840e-01  5.3861052406656040e-01 1.1632709547975642e-01 7.0865506283196866e-01  5.3867161556575482e-01 1.1641120235052502e-01 7.0891165230797071e-01  5.3881035084851636e-01 1.1660269517779101e-01 7.0949358873625856e-01  5.3875512902874378e-01 1.1652645409846829e-01 7.0926237623543320e-01  5.3872691080612978e-01 1.1648756705130099e-01 7.0914418107741228e-01  5.3870931207329797e-01 1.1646334735525503e-01 7.0907042827844802e-01  5.3869883649802897e-01 1.1644894286469777e-01 7.0902651019575269e-01  5.3869983476456718e-01 1.1645031504744306e-01 7.0903069615720893e-01  5.3871365588885212e-01 1.1646932027050022e-01 7.0908863676418432e-01  5.3873442436284236e-01 1.1649789643670250e-01 7.0917564389029519e-01  5.3910547728555080e-01 1.1701142963518447e-01 7.1072771968374737e-01  5.3926492662881131e-01 1.1723309801227980e-01 7.1139302172612573e-01  5.3942880707627150e-01 1.1746163344610087e-01 7.1207545338713696e-01  5.3960261586033209e-01 1.1770481467365752e-01 7.1279768400552823e-01  5.3978931627470705e-01 1.1796695930075103e-01 7.1357169545647958e-01  5.3999109895462849e-01 1.1825135500348487e-01 7.1440614084375886e-01  5.4021117223526116e-01 1.1856280515982447e-01 7.1531371399084731e-01  5.4045483990017651e-01 1.1890917654223795e-01 7.1631552145366939e-01  5.4073438697617504e-01 1.1930842476041938e-01 7.1746095562688206e-01  5.4147057684251787e-01 1.2036777277442645e-01 7.2046067334744945e-01  5.4176859510496822e-01 1.2079989737202339e-01 7.2166798247594910e-01  5.4204306840608407e-01 1.2119984850362475e-01 7.2277577112728197e-01  5.4230297078133327e-01 1.2158041650681660e-01 7.2382096489324121e-01  5.4255338208888237e-01 1.2194876618453790e-01 7.2482457927749810e-01  5.4279508477624883e-01 1.2230587244164945e-01 7.2579013003791992e-01  5.4302836737151816e-01 1.2265198254096293e-01 7.2671913345477834e-01  5.4325261220147569e-01 1.2298600888888106e-01 7.2760947523275399e-01  5.4346655444285186e-01 1.2330588781060198e-01 7.2845649969519022e-01  5.4366757763532547e-01 1.2360752261808226e-01 7.2925023115295540e-01  5.4385230292451614e-01 1.2388562596013662e-01 7.2997779179451772e-01  5.4401413351711780e-01 1.2413001519010314e-01 7.3061374222713615e-01  5.4424863315631888e-01 1.2448591330570645e-01 7.3153214724707327e-01  5.4441890422287142e-01 1.2474563558069653e-01 7.3219665244969456e-01  5.4462256677335741e-01 1.2505724744733326e-01 7.3298946911049323e-01  5.4486668109441594e-01 1.2543190282054148e-01 7.3393706246210644e-01  5.4536834903317688e-01 1.2620360896495703e-01 7.3587847499286774e-01  5.4540856865830167e-01 1.2626528411618740e-01 7.3603398255126884e-01  5.4542029586468010e-01 1.2628319470236746e-01 7.3607931490055001e-01  5.4542052360198956e-01 1.2628354260622887e-01 7.3608019428602300e-01  5.4541631794595336e-01 1.2627722012033968e-01 7.3606389038568676e-01  5.4542178234059457e-01 1.2628596926365682e-01 7.3608473416175446e-01  5.4545676228776141e-01 1.2634045738093436e-01 7.3621915692798434e-01  5.4561836104445138e-01 1.2659146843637514e-01 7.3684014556899591e-01  5.4568163454250140e-01 1.2668971948247282e-01 7.3708301674417365e-01  5.4572112375135629e-01 1.2675098308113422e-01 7.3723448226791333e-01  5.4574257072936316e-01 1.2678422988594290e-01 7.3731668612670498e-01  5.4574934636771710e-01 1.2679473554341975e-01 7.3734264457322007e-01  5.4574547911978200e-01 1.2678876323601831e-01 7.3732782807006214e-01  5.4573466713524998e-01 1.2677208229456699e-01 7.3728638407840130e-01  5.4572422420944000e-01 1.2675618325300103e-01 7.3724626365726531e-01  5.4589127608470944e-01 1.2701862889241256e-01 7.3788511145910396e-01  5.4602320672745364e-01 1.2722536048698047e-01 7.3838929762001648e-01  5.4613850109630901e-01 1.2740627407886221e-01 7.3882924976591124e-01  5.4623632924121446e-01 1.2756000520492089e-01 7.3920205746006185e-01  5.4631176030042783e-01 1.2767870175305523e-01 7.3948919479939701e-01  5.4639063014300082e-01 1.2780314120572647e-01 7.3978897362111229e-01  5.4645293018971064e-01 1.2790174316622571e-01 7.4002539340540452e-01  5.4653155962