<?xml version="1.0"?>
<VTKFile type="UnstructuredGrid"  version="0.1"  >
<UnstructuredGrid>
<Piece  NumberOfPoints="7288" NumberOfCells="14083">
<Points>
<DataArray  type="Float64"  NumberOfComponents="3"  format="ascii">239.8 188 0  250.2 180 0  258.2 172.4 0  257 169.4 0  259.9 157.4 0  258.7 150.3 0  261 143.5 0  251.7 144.4 0  250 138.7 0  247 138.1 0  245.2 130.8 0  247.3 126.4 0  242.7 118.6 0  231.2 107.7 0  226 102.4 0  226.5 93.90000000000001 0  224.5 91.19999999999999 0  224.5 84.09999999999999 0  234.5 73.80000000000001 0  228.4 68.90000000000001 0  230 70 0  233.4 68 0  222.7 61.5 0  220.6 45.5 0  223.4 49.40000000000001 0  224 47 0  221.8 43.09999999999999 0  221 38.40000000000001 0  219.5 38.5 0  219.4 41.69999999999999 0  217.1 36.90000000000001 0  209.7 36 0  209.5 31.69999999999999 0  205.1 29.90000000000001 0  201.5 30.40000000000001 0  199.2 38.69999999999999 0  201.8 41.40000000000001 0  194.8 53.80000000000001 0  196.1 57.69999999999999 0  193 59 0  191.4 66.09999999999999 0  193.5 66.5 0  194.1 64.40000000000001 0  195.6 64.69999999999999 0  195.4 72.40000000000001 0  199.5 77.30000000000001 0  197.7 86.90000000000001 0  200.6 87.5 0  201.5 91 0  198 94.80000000000001 0  198.6 100 0  197.3 105.4 0  198 109.5 0  197 112.7 0  198.3 116.1 0  201.3 122 0  207.2 121 0  208.1 126.7 0  205.6 127.9 0  209.1 134.9 0  210.9 144.4 0  210.1 147.9 0  213 148.4 0  215.4 149.3 0  215.1 152.8 0  219.9 159.7 0  220.3 163.2 0  218.7 164.9 0  219.9 166.7 0  221.9 169.7 0  220 170.3 0  224.9 174.7 0  229.8 177.4 0  229.7 181 0  228 172.9 0  239 178 0  240.4 180 0  239 181.5 0  241.2 185.9 0  242.95 187.99 0  240.5875 187.9975 0  241.375 187.995 0  242.1625 187.9925 0  243.6090909090879 187.2636363636397 0  244.2681818181765 186.5372727272785 0  244.9272727272692 185.810909090913 0  245.5863636363531 185.0845454545571 0  246.245454545445 184.3581818181923 0  246.9045454545351 183.6318181818295 0  247.5636363636303 182.9054545454612 0  248.2227272727197 182.1790909090992 0  248.8818181818179 181.4527272727275 0  249.5409090909066 180.7263636363664 0  250.8666666666961 179.3666666666387 0  251.5333333334033 178.7333333332668 0  252.2000000000994 178.0999999999055 0  252.8666666668011 177.466666666539 0  253.5333333335083 176.8333333331671 0  254.2000000002044 176.1999999998058 0  254.8666666669005 175.5666666664445 0  255.5333333336077 174.9333333330727 0  256.2000000002685 174.2999999997449 0  256.8666666668457 173.6666666664966 0  257.5333333334283 173.033333333243 0  257.9000000000077 171.6500000000191 0  257.6000000000015 170.9000000000038 0  257.2999999999954 170.1499999999885 0  257.2230769230778 168.4769230769195 0  257.4461538461543 167.5538461538442 0  257.6692307692309 166.6307692307688 0  257.8923076923074 165.7076923076935 0  258.115384615384 164.7846153846181 0  258.3384615384605 163.8615384615427 0  258.5615384615395 162.9384615384572 0  258.784615384616 162.0153846153819 0  259.0076923076926 161.0923076923065 0  259.2307692307691 160.1692307692311 0  259.4538461538457 159.2461538461558 0  259.6769230769222 158.3230769230804 0  259.750000000001 156.512500000006 0  259.6000000000014 155.6250000000082 0  259.4500000000029 154.7375000000176 0  259.3000000000018 153.8500000000108 0  259.1500000000007 152.962500000004 0  259.0000000000004 152.0750000000026 0  258.849999999999 151.187499999994 0  258.9875000000052 149.4499999999846 0  259.275000000002 148.5999999999941 0  259.5624999999954 147.7500000000135 0  259.849999999995 146.900000000015 0  260.1374999999945 146.0500000000164 0  260.4249999999913 145.2000000000259 0  260.7124999999948 144.3500000000154 0  260.0700000000398 143.5899999999961 0  259.1400000000573 143.6799999999944 0  258.2100000000351 143.7699999999966 0  257.2800000000262 143.8599999999975 0  256.350000000011 143.9499999999989 0  255.4199999999881 144.0400000000011 0  254.4899999999726 144.1300000000026 0  253.5599999999944 144.2200000000005 0  252.6300000000009 144.3099999999999 0  251.4166666666658 143.4499999999971 0  251.1333333333388 142.5000000000182 0  250.8500000000015 141.5500000000051 0  250.5666666666612 140.5999999999818 0  250.2833333333342 139.6500000000029 0  249.2500000000005 138.5500000000001 0  248.5000000000011 138.4000000000002 0  247.7499999999995 138.2499999999999 0  246.7750000000005 137.1875000000023 0  246.5500000000021 136.2750000000085 0  246.3250000000036 135.3625000000147 0  246.1000000000042 134.450000000017 0  245.8750000000022 133.5375000000088 0  245.650000000003 132.6250000000124 0  245.4250000000046 131.7125000000187 0  245.619999999996 129.9200000000084 0  246.0399999999992 129.0400000000017 0  246.4599999999987 128.1600000000028 0  246.8800000000001 127.2799999999997 0  246.8399999999988 125.6199999999979 0  246.3799999999984 124.8399999999973 0  245.9199999999991 124.0599999999985 0  245.4600000000036 123.2800000000062 0  245.0000000000049 122.5000000000082 0  244.5400000000036 121.7200000000062 0  244.0800000000033 120.9400000000056 0  243.6200000000016 120.1600000000027 0  243.1600000000012 119.3800000000021 0  241.9812499999996 117.9187499999997 0  241.2625000000007 117.2375000000007 0  240.5437500000017 116.5562500000017 0  239.8250000000041 115.875000000004 0  239.1062500000066 115.1937500000063 0  238.3875000000076 114.5125000000072 0  237.6687500000087 113.8312500000082 0  236.9500000000083 113.1500000000079 0  236.231250000008 112.4687500000076 0  235.512500000009 111.7875000000085 0  234.7937500000045 111.1062500000043 0  234.0750000000042 110.4250000000039 0  233.3562500000066 109.7437500000062 0  232.6375000000021 109.062500000002 0  231.9187500000031 108.381250000003 0  230.5500000000004 107.0375000000004 0  229.9000000000021 106.3750000000021 0  229.2500000000038 105.7125000000039 0  228.6000000000041 105.0500000000042 0  227.9500000000018 104.3875000000018 0  227.2999999999952 103.7249999999951 0  226.6500000000024 103.0625000000024 0  226.0555555555555 101.4555555555556 0  226.1111111111111 100.5111111111111 0  226.1666666666667 99.56666666666668 0  226.2222222222222 98.62222222222223 0  226.2777777777778 97.67777777777778 0  226.3333333333333 96.73333333333335 0  226.3888888888889 95.78888888888889 0  226.4444444444445 94.84444444444446 0  226 93.22499999999999 0  225.5000000000026 92.55000000000358 0  225.0000000000026 91.87500000000358 0  224.5 90.31250000000068 0  224.5 89.4250000000097 0  224.5 88.53750000001317 0  224.5 87.65000000001388 0  224.5 86.76250000001457 0  224.5 85.87500000001248 0  224.5 84.9874999999993 0  225.1666666666659 83.41333333333409 0  225.8333333333319 82.72666666666818 0  226.4999999999978 82.04000000000228 0  227.1666666666649 81.35333333333514 0  227.8333333333301 80.66666666667 0  228.4999999999942 79.980000000006 0  229.1666666666601 79.2933333333401 0  229.8333333333316 78.60666666666847 0  230.4999999999975 77.92000000000257 0  231.1666666666644 77.23333333333572 0  231.8333333333295 76.54666666667057 0  232.4999999999972 75.86000000000287 0  233.1666666666681 75.17333333333181 0  233.8333333333368 74.48666666666306 0  233.7499999999995 73.16666666666629 0  233.0000000000018 72.53333333333488 0  232.2500000000014 71.90000000000116 0  231.5000000000009 71.26666666666743 0  230.7500000000005 70.63333333333372 0  229.233333333333 68.75000000000006 0  230.0666666666665 68.60000000000004 0  230.8999999999995 68.45000000000009 0  231.7333333333325 68.30000000000015 0  232.566666666667 68.14999999999995 0  232.5499999999897 68.50000000000607 0  231.7 69 0  230.8500000000103 69.49999999999393 0  227.8300000000008 68.16000000000106 0  227.2600000000064 67.42000000000837 0  226.6900000000077 66.68000000001001 0  226.1200000000024 65.94000000000314 0  225.5500000000108 65.20000000001409 0  224.9800000000098 64.46000000001268 0  224.4100000000007 63.72000000000098 0  223.8399999999971 62.97999999999621 0  223.2699999999993 62.23999999999915 0  222.753846153846 60.56923076923239 0  222.8076923076921 59.63846153846478 0  222.8615384615381 58.70769230769827 0  222.9153846153842 57.77692307693071 0  222.9692307692302 56.84615384616315 0  223.0230769230761 55.91538461539836 0  223.0769230769224 54.98461538462665 0  223.1307692307688 54.05384615385345 0  223.184615384615 53.12307692308312 0  223.2384615384611 52.19230769231556 0  223.2923076923071 51.26153846154906 0  223.3461538461533 50.33076923077847 0  222.8400000000024 48.62000000000327 0  222.2800000000047 47.84000000000661 0  221.7200000000005 47.06000000000071 0  221.1600000000003 46.28000000000039 0  221.4500000000116 45.87500000000512 0  222.3 46.25 0  223.1499999999884 46.62499999999488 0  223.5600000000055 46.22000000000981 0  223.1199999999987 45.43999999999767 0  222.6800000000061 44.66000000001075 0  222.2399999999969 43.8799999999944 0  221.6400000000004 42.16000000000253 0  221.4800000000009 41.22000000000548 0  221.3200000000014 40.28000000000801 0  221.1600000000009 39.34000000000556 0  220.25 38.45 0  219.4749999999999 39.30000000000165 0  219.45 40.09999999999999 0  219.425 40.90000000000112 0  219.0166666666641 40.89999999999463 0  218.6333333333375 40.10000000000875 0  218.2500000000016 39.30000000000339 0  217.8666666666635 38.49999999999351 0  217.483333333337 37.70000000000762 0  216.1750000000165 36.78750000000201 0  215.2500000000275 36.67500000000335 0  214.3250000000385 36.56250000000469 0  213.4000000000277 36.45000000000337 0  212.4750000000059 36.33750000000072 0  211.5499999999838 36.22499999999803 0  210.6249999999835 36.11249999999799 0  209.6600000000001 35.14000000000318 0  209.6200000000001 34.28000000000268 0  209.5800000000001 33.42000000000284 0  209.5399999999998 32.55999999999681 0  208.6200000000117 31.34000000000476 0  207.7400000000138 30.98000000000564 0  206.8600000000162 30.62000000000662 0  205.9800000000174 30.26000000000711 0  204.2000000000054 30.02499999999925 0  203.2999999999946 30.15000000000076 0  202.3999999999945 30.27500000000076 0  201.2444444444438 31.32222222222468 0  200.9888888888895 32.24444444
[...]
<PointData  Vectors="f_12"> 
<DataArray  type="Float64"  Name="f_12"  NumberOfComponents="3" format="ascii">5.2161469857873199e-01 1.7744980206617755e-01 5.9283314460894265e-01  5.2049033506141029e-01 1.7584384176212395e-01 5.8886326885792817e-01  5.1918111996502936e-01 1.7405650514790769e-01 5.8414511494588794e-01  5.1858805202572300e-01 1.7330086142743537e-01 5.8196333478556561e-01  5.1471899131007659e-01 1.6877482943009503e-01 5.6724020874116277e-01  5.1236143301119674e-01 1.6647653008563074e-01 5.5779724364411098e-01  5.1163184753068469e-01 1.6577327295125152e-01 5.5482561702058275e-01  5.0852089887966090e-01 1.6392599525193788e-01 5.4145937729722737e-01  5.0429217372859536e-01 1.6211756427924850e-01 5.2242688521416214e-01  5.0232501675799368e-01 1.6195308353151375e-01 5.1298257658184698e-01  4.9600569624605112e-01 1.6365782568096862e-01 4.8067944828266490e-01  4.9420575176594855e-01 1.6503085405929599e-01 4.7076920048567450e-01  4.9199444355285160e-01 1.6826228396000970e-01 4.5764381534912940e-01  4.8765042398733244e-01 1.8170454921308613e-01 4.2758199848999395e-01  4.8587344493600171e-01 1.9368062401680974e-01 4.1150854713265717e-01  4.8488661944298972e-01 2.0574055427061502e-01 3.9948924586895418e-01  4.8472990949402706e-01 2.0960983495882773e-01 3.9648016956173548e-01  4.8451568621720298e-01 2.1992749201935596e-01 3.8952675774458534e-01  4.8451217008240333e-01 2.2708396324434713e-01 3.8546341217925506e-01  4.8452679780117769e-01 2.2799593128464957e-01 3.8502758957474070e-01  4.8452143280307414e-01 2.2769641176768202e-01 3.8516761994320708e-01  4.8452264777576970e-01 2.2785446926258340e-01 3.8508455142069886e-01  4.8460286147737264e-01 2.3176107083119765e-01 3.8330998257666443e-01  4.8472152672942892e-01 2.3620474514041881e-01 3.8143260024112163e-01  4.8469690992522274e-01 2.3539701963748713e-01 3.8175768897891343e-01  4.8472672381868637e-01 2.3637461094493778e-01 3.8136428969614272e-01  4.8472845913846219e-01 2.3642779443678555e-01 3.8134351494526048e-01  4.8473339202224597e-01 2.3658469225240078e-01 3.8128114416618092e-01  4.8473338588208054e-01 2.3658448213019470e-01 3.8128123039957784e-01  4.8473197218282749e-01 2.3653737341080969e-01 3.8130034776622906e-01  4.8474179295760939e-01 2.3683840801597489e-01 3.8118269071038152e-01  4.8475352092630719e-01 2.3718607637035949e-01 3.8104894116407362e-01  4.8476163665363353e-01 2.3742569940156663e-01 3.8095689146478195e-01  4.8476353611613987e-01 2.3748129811762864e-01 3.8093562186981111e-01  4.8476364726688798e-01 2.3748445674280413e-01 3.8093443268776073e-01  4.8475523840783907e-01 2.3723532870272704e-01 3.8103031304433926e-01  4.8474305149783814e-01 2.3686659181649369e-01 3.8117361967008812e-01  4.8467673464887123e-01 2.3472564029912060e-01 3.8202910077447233e-01  4.8465206167842911e-01 2.3383002136932851e-01 3.8240343051501086e-01  4.8463794979135050e-01 2.3331071877258935e-01 3.8262133323932274e-01  4.8458867362172015e-01 2.3123080413128153e-01 3.8353313676041584e-01  4.8458971894432984e-01 2.3126302120466721e-01 3.8352062773675683e-01  4.8462008352507080e-01 2.3257731251902203e-01 3.8294042581338711e-01  4.8460977047637632e-01 2.3212819978141805e-01 3.8313915694630091e-01  4.8456489456835405e-01 2.2989245920829782e-01 3.8416284327199662e-01  4.8451437522172791e-01 2.2568773297563599e-01 3.8626845119702641e-01  4.8449854424382433e-01 2.1925655333970681e-01 3.8980798880034784e-01  4.8452064204953171e-01 2.1765818914903359e-01 3.9082764358049094e-01  4.8462988430745230e-01 2.1191837702660057e-01 3.9463907145450977e-01  4.8477293529498527e-01 2.0698613035677557e-01 3.9816553210777905e-01  4.8496581900686042e-01 2.0305147702497472e-01 4.0139779360491329e-01  4.8525648322816156e-01 1.9851102688051653e-01 4.0548428199306108e-01  4.8551752554798988e-01 1.9539839953061211e-01 4.0861206653386278e-01  4.8570600830422650e-01 1.9341322695897845e-01 4.1072188300924645e-01  4.8589638331148638e-01 1.9172409104878618e-01 4.1267766257430794e-01  4.8626088891781760e-01 1.8897719407347907e-01 4.1615105896718069e-01  4.8725110755280948e-01 1.8381166936312460e-01 4.2429313014448977e-01  4.8977304362338708e-01 1.7383469916275079e-01 4.4307567296866762e-01  4.9024733880868099e-01 1.7231274568103899e-01 4.4638628153597470e-01  4.9235213936281091e-01 1.6798839122527959e-01 4.5966451239159223e-01  4.9664792833442234e-01 1.6292086524181873e-01 4.8430188126630447e-01  4.9733586363564175e-01 1.6242070703368350e-01 4.8802896674423202e-01  4.9785450718916019e-01 1.6225591918235477e-01 4.9071809381527243e-01  4.9961381834475410e-01 1.6183135289136083e-01 4.9969925306971819e-01  5.0189557722667333e-01 1.6157369740785887e-01 5.1107242483764570e-01  5.0734662916352768e-01 1.6324911573559264e-01 5.3631533581579816e-01  5.1027556562747123e-01 1.6495802104919183e-01 5.4906095364900220e-01  5.1110077814566723e-01 1.6550952806098732e-01 5.5256736216681024e-01  5.1161791325800887e-01 1.6590909300313875e-01 5.5472034818819060e-01  5.1259308221424515e-01 1.6672605171542140e-01 5.5873029177095945e-01  5.1233842644590621e-01 1.6648592380622207e-01 5.5769936466116909e-01  5.1407437160463609e-01 1.6811749499430872e-01 5.6469630182909769e-01  5.1718460325592341e-01 1.7155149200618097e-01 5.7673416553321166e-01  5.1754667497225582e-01 1.7196569616795965e-01 5.7810524526776286e-01  5.1495227398863519e-01 1.6907682920629405e-01 5.6813028652552844e-01  5.1904924094863936e-01 1.7393987519846957e-01 5.8363952979365907e-01  5.2044341980706255e-01 1.7581333632837409e-01 5.8868083650541636e-01  5.2092927656470212e-01 1.7648072211488988e-01 5.9041681515045175e-01  5.2149581716728999e-01 1.7727937624740869e-01 5.9241614683334176e-01  5.2156816116210714e-01 1.7738257458806883e-01 5.9267019740155702e-01  5.2160870446790630e-01 1.7744116643747990e-01 5.9281215030013190e-01  5.2159578868826495e-01 1.7742252732835470e-01 5.9276692475077175e-01  5.2158108913526013e-01 1.7740127172514161e-01 5.9271546479987436e-01  5.2153538290919133e-01 1.7733530407528647e-01 5.9255532015800549e-01  5.2147675915478664e-01 1.7725082568544259e-01 5.9234973177402961e-01  5.2140107735794516e-01 1.7714185530898019e-01 5.9208408300258009e-01  5.2131246934639919e-01 1.7701442322087019e-01 5.9177269718261527e-01  5.2121323294513389e-01 1.7687192630003024e-01 5.9142348759125363e-01  5.2110646638323233e-01 1.7671887611058026e-01 5.9104720463729132e-01  5.2099220034988369e-01 1.7655549479165664e-01 5.9064379911026954e-01  5.2087286155111168e-01 1.7638532284328748e-01 5.9022172783926330e-01  5.2075042633307811e-01 1.7621126688914102e-01 5.8978786905554870e-01  5.2062309028839826e-01 1.7603098930627811e-01 5.8933569582726908e-01  5.2036615163502387e-01 1.7566947188519605e-01 5.8842044728153275e-01  5.2024548333649268e-01 1.7550080937352841e-01 5.8798926180753164e-01  5.2012426331036432e-01 1.7533230544880973e-01 5.8755515962072491e-01  5.2000238522732722e-01 1.7516384148051950e-01 5.8711775443886971e-01  5.1988061323699708e-01 1.7499649601771058e-01 5.8667977438822394e-01  5.1975982783421448e-01 1.7483146655763168e-01 5.8624441581364184e-01  5.1963976571772741e-01 1.7466846991254345e-01 5.8581072352904440e-01  5.1952249692312369e-01 1.7451028513585209e-01 5.8538622682647068e-01  5.1941117769694944e-01 1.7436110457110990e-01 5.8498243455664189e-01  5.1930988401636502e-01 1.7422627147811337e-01 5.8461428673409532e-01  5.1922696027822057e-01 1.7411665758126663e-01 5.8431233445748065e-01  5.1913044662171137e-01 1.7399127808656939e-01 5.8395949012343007e-01  5.1901865857452611e-01 1.7384804252396857e-01 5.8354933795695785e-01  5.1884894132614257e-01 1.7363165809544842e-01 5.8292528707059166e-01  5.1824766720951077e-01 1.7287228864290213e-01 5.8070375329891288e-01  5.1793968877222429e-01 1.7248839110953132e-01 5.7955885349221392e-01  5.1763551603462143e-01 1.7211359654657382e-01 5.7842257806996522e-01  5.1733000498771742e-01 1.7174180646715601e-01 5.7727567189593365e-01  5.1702253713585455e-01 1.7137251821145774e-01 5.7611568492915510e-01  5.1671381909027780e-01 1.7100676654710739e-01 5.7494519107084252e-01  5.1640526765742767e-01 1.7064635616763801e-01 5.7376951634115403e-01  5.1609843392355403e-01 1.7029310067655851e-01 5.7259467939488351e-01  5.1579593403862833e-01 1.6995006213798416e-01 5.7143074260986093e-01  5.1549895552619796e-01 1.6961858861114315e-01 5.7028251010366915e-01  5.1521301223824822e-01 1.6930443988413280e-01 5.6917180258442923e-01  5.1494435054939769e-01 1.6901414973553214e-01 5.6812346215731968e-01  5.1449710608608334e-01 1.6854455282065742e-01 5.6636608318188764e-01  5.1423049268076870e-01 1.6827261251812978e-01 5.6531129893912813e-01  5.1394065392984623e-01 1.6798198144775953e-01 5.6415960251007369e-01  5.1363757466734494e-01 1.6768343476999745e-01 5.6294980486487201e-01  5.1332695024464459e-01 1.6738278626173958e-01 5.6170410110826496e-01  5.1301318422831665e-01 1.6708406639850060e-01 5.6044002738815757e-01  5.1269580359060485e-01 1.6678648078118749e-01 5.5915571325403057e-01  5.1209460530610695e-01 1.6622728277600343e-01 5.5671104029305973e-01  5.1190974214392360e-01 1.6605445202494967e-01 5.5595669569927098e-01  5.1178649393010567e-01 1.6593692927354761e-01 5.5545352083177102e-01  5.1170456042046564e-01 1.6585679957810151e-01 5.5511912151131926e-01  5.1165746501575604e-01 1.6580804306493208e-01 5.5492750533981750e-01  5.1163586328619892e-01 1.6578285703913881e-01 5.5484038009731385e-01  5.1163082592726561e-01 1.6577401948760384e-01 5.5482092362929203e-01  5.1162350380895449e-01 1.6576850513978594e-01 5.5479045566427010e-01  5.1158791581659957e-01 1.6574642294834771e-01 5.5464092457890479e-01  5.1151321890979717e-01 1.6569831637516685e-01 5.5432729208201059e-01  5.1139133911922718e-01 1.6561913883415563e-01 5.5381498057648659e-01  5.1121049199094271e-01 1.6550184576072280e-01 5.5305302008457602e-01  5.1096000764932892e-01 1.6534135296073182e-01 5.5199378195959647e-01  5.1062650368756690e-01 1.6513266539946411e-01 5.5057596502774331e-01  5.1018529890090603e-01 1.6486539829766136e-01 5.4868733085473265e-01  5.0957212619165759e-01 1.6450872513614972e-01 5.4604028057396681e-01  5.0728704034345362e-01 1.6328932037896987e-01 5.3602100667591834e-01  5.0641953797595796e-01 1.6288111707944361e-01 5.3215104176223726e-01  5.0568275342898783e-01 1.6257204074504036e-01 5.2882392566353342e-01  5.0506521931773907e-01 1.6234529044581950e-01 5.2600424155516656e-01  5.0457774886066298e-01 1.6219095673355727e-01 5.2375691869581920e-01  5.0411777450481954e-01 1.6208940874957964e-01 5.2160186761752148e-01  5.0374912383000403e-01 1.6204230632925704e-01 5.1984728917786782e-01  5.0320065565843541e-01 1.6199427482690418e-01 5.1721657692036305e-01  5.0115079240687221e-01 1.6196794372690648e-01 5.0724016519553750e-01  5.0026836409696029e-01 1.6204628498470380e-01 5.0286341122476297e-01  4.9948665756815430e-01 1.6217832407199659e-01 4.9893030374526887e-01  4.9876199005170341e-01 1.6236108059603668e-01 4.9523240510369715e-01  4.9807554455424791e-01 1.6259355362088038e-01 4.9168041121662315e-01  4.9741197464174719e-01 1.6287561217228211e-01 4.8820046578854626e-01  4.9674894660216118e-01 1.6321446041427401e-01 4.8467799378930748e-01  4.9535213158475599e-01 1.6409702232719683e-01 4.7712476780063651e-01  4.9490980012862029e-01 1.6442547316389652e-01 4.7469491633624517e-01  4.9457880409553145e-01 1.6469390952083571e-01 4.7286002414304629e-01  4.9433890170766570e-01 1.6490448858162796e-01 4.7151922322954420e-01  4.9409342496507302e-01 1.6515364095931387e-01 4.7012729320901914e-01  4.9391352054513282e-01 1.6536398990433737e-01 4.6909138860285338e-01  4.9369818346974814e-01 1.6563081764129903e-01 4.6784257559096454e-01  4.9345987266235319e-01 1.6594278913070773e-01 4.6645043884476600e-01  4.9321072230792978e-01 1.6628772941543449e-01 4.6498356543323183e-01  4.9295559389022525e-01 1.6666063699664735e-01 4.6346934495667502e-01  4.9269944060391047e-01 1.6705565211921886e-01 4.6193628931577396e-01  4.9244781084248018e-01 1.6746513990476397e-01 4.6041715330118915e-01  4.9220723296552493e-01 1.6787778822477764e-01 4.5895178944530102e-01  4.9176034365802235e-01 1.6871230711635024e-01 4.5618861515158760e-01  4.9149702400827672e-01 1.6924822191810240e-01 4.5453376791480543e-01  4.9122253007875955e-01 1.6983873029337634e-01 4.5278939368496951e-01  4.9094074828672896e-01 1.7048057885998313e-01 4.5097697450543317e-01  4.9065523092931101e-01 1.7116865281585203e-01 4.4911757786088452e-01  4.9036846629956193e-01 1.7190086214881065e-01 4.4722510087808914e-01  4.9008161030644670e-01 1.7267751668932155e-01 4.4530525782852182e-01  4.8979608396887003e-01 1.7349783816145462e-01 4.4336583426365422e-01  4.8951336235478027e-01 1.7436020698346280e-01 4.4141543154947249e-01  4.8923378627042646e-01 1.7526684594363520e-01 4.3945458065412379e-01  4.8895809868867984e-01 1.7621768497576271e-01 4.3748726518475428e-01  4.8868721726856207e-01 1.7721192556622709e-01 4.3551881058088987e-01  4.8842058988833142e-01 1.7825536997828337e-01 4.3354312300080478e-01  4.8816008897101942e-01 1.7934563603818435e-01 4.3157135649873751e-01  4.8790377202993174e-01 1.8049231124691345e-01 4.2958811711096578e-01  4.8741848300349061e-01 1.8289300551131804e-01 4.2569981994848161e-01  4.8719550106109261e-01 1.8411660668005941e-01 4.2384352398860364e-01  4.8697894043830736e-01 1.8538844189607812e-01 4.2199257403981777e-01  4.8676743275135981e-01 1.8672761357042938e-01 4.2012901556621779e-01  4.8655972825472232e-01 1.8814319028051668e-01 4.1824114038805460e-01  4.8635170052405824e-01 1.8967497805878986e-01 4.1628475062166514e-01  4.8613408096678440e-01 1.9141525573971904e-01 4.1415884636519079e-01  4.8563298824402790e-01 1.9596938206618347e-01 4.0894957980345131e-01  4.8546582901596996e-01 1.9770560436120713e-01 4.0708746867379386e-01  4.8533162513422673e-01 1.9922521072587984e-01 4.0552065932811981e-01  4.8521936548305694e-01 2.0060981734814839e-01 4.0414545230468096e-01  4.8512405130633018e-01 2.0188883265594693e-01 4.0291918492736051e-01  4.8504337102019834e-01 2.0306750804702536e-01 4.0182692007830456e-01  4.8497610741302627e-01 2.0413750788535739e-01 4.0086707902892177e-01  4.8492236477949674e-01 2.0506766082669028e-01 4.0005787988104435e-01  4.8486023324016730e-01 2.0630006863426584e-01 3.9903434529275450e-01  4.8482336587541780e-01 2.0714448733865709e-01 3.9836357513895149e-01  4.8478128064533305e-01 2.0819718397433393e-01 3.9754789814920494e-01  4.8467881817478020e-01 2.1117589035929632e-01 3.9532721824149875e-01  4.8464085613025076e-01 2.1249153125401415e-01 3.9438462077574565e-01  4.8460998662360599e-01 2.1371634681850737e-01 3.9353058275179476e-01  4.8458424064006106e-01 2.1489889678954002e-01 3.9272736012693704e-01  4.8456278270887820e-01 2.1606307339554615e-01 3.9195709895128822e-01  4.8454489851216725e-01 2.1723179326781519e-01 3.9120304348733637e-01  4.8452987370975070e-01 2.1844734802953961e-01 3.9043751956527684e-01  4.8450590349373029e-01 2.2133408057866960e-01 3.8868049411985922e-01  4.8450126655757880e-01 2.2233394756287142e-01 3.8809093939690953e-01  4.8449913485489599e-01 2.2315756310399962e-01 3.8761412087398894e-01  4.8449860964577701e-01 2.2386180285797261e-01 3.8721322973460542e-01  4.8449915671378985e-01 2.2447257024544801e-01 3.8687083823665086e-01  4.8450040330704813e-01 2.2500458887219851e-01 3.8657666734488921e-01  4.8450207299867504e-01 2.2546615865660627e-01 3.8632456689860678e-01  4.8450394545801989e-01 2.2586267977136304e-01 3.8611031665422602e-01  4.8450584835415261e-01 2.2619918976325853e-01 3.8593015402336633e-01  4.8450764236805455e-01 2.2647814680805550e-01 3.8578194965117218e-01  4.8450922587632872e-01 2.2670260971846554e-01 3.8566343600720904e-01  4.8451051261373629e-01 2.2687355058742720e-01 3.8557360645046623e-01  4.8451144693768283e-01 2.2699262250068702e-01 3.8551123268184317e-01  4.8451200803801653e-01 2.2706240465794081e-01 3.8547474872796661e-01  4.8451236507587614e-01 2.2709514787301277e-01 3.8545815987773741e-01  4.8451301391293378e-01 2.2713642763493164e-01 3.8543837204797465e-01  4.8451416204650244e-01 2.2721094111384757e-01 3.8540251820217042e-01  4.8451583008654064e-01 2.2731965902693385e-01 3.8535015691477065e-01  4.8451812886400242e-01 2.2747112654150387e-01 3.8527704611502600e-01  4.8452372066076177e-01 2.2784058875761382e-01 3.8509855568538348e-01  4.8452274047142574e-01 2.2780713869412134e-01 3.8511202928913651e-01  4.8452259773243744e-01 2.2782087869647397e-01 3.8510339490147716e-01  4.8452260639402356e-01 2.2783744691792168e-01 3.8509400984989656e-01  4.8452263345166763e-01 2.2784896228744389e-01 3.8508760614480275e-01  4.8452263054194666e-01 2.2784784878164649e-01 3.8508822372503948e-01  4.8452258520841240e-01 2.2783176388457135e-01 3.8509712544395558e-01  4.8452243988002736e-01 2.2780003448134756e-01 3.8511436413747563e-01  4.8453245873171452e-01 2.2831216889595887e-01 3.8487964162208588e-01  4.8453788936920550e-01 2.2861523909541753e-01 3.8473781020367531e-01  4.8454363019864383e-01 2.2892911819047151e-01 3.8459150092069744e-01  4.8454979708668539e-01 2.2925715924345319e-01 3.8443945132059332e-01  4.8455646008994924e-01 2.2960087963854825e-01 3.8428118172972209e-01  4.8456366421999059e-01 2.2996089300094213e-01 3.8411658516583547e-01  4.8457150559884904e-01 2.3034033340128526e-01 3.8394440191340873e-01  4.8458016448498875e-01 2.3074631372548582e-01 3.8376157100146568e-01  4.8459005213429007e-01 2.3119581369004868e-01 3.8356068863517895e-01  4.8461597706514686e-01 2.3232365010434597e-01 3.8306232218203129e-01  4.8462629880123448e-01 2.3275414957765614e-01 3.8287426193525309e-01  4.8463558981931526e-01 2.3313168758342973e-01 3.8271057318026885e-01  4.8464416225952772e-01 2.3347140799097052e-01 3.8256438731529874e-01  4.8465218880717875e-01 2.3378227726754008e-01 3.8243157128584138e-01  4.8465971090702570e-01 2.3406743099085831e-01 3.8231058167970611e-01  4.8466675394755587e-01 2.3432922580537230e-01 3.8220022662273501e-01  4.8467331944009145e-01 2.3456892140095323e-01 3.8209980517933179e-01  4.8467939387874764e-01 2.3478709124568295e-01 3.8200892338471143e-01  4.8468492966759685e-01 2.3498295880948794e-01 3.8192776815046753e-01  4.8468986319096830e-01 2.3515515751373764e-01 3.8185677441405591e-01  4.8469405422687589e-01 2.3529964172934442e-01 3.8179748239865657e-01  4.8469980155523201e-01 2.3549402737923519e-01 3.8171830317634209e-01  4.8470375271901628e-01 2.3562519910662230e-01 3.8166526885748348e-01  4.8470836479272050e-01 2.3577687687146240e-01 3.8160417310919542e-01  4.8471379585924995e-01 2.3595403241365942e-01 3.8153304409589700e-01  4.8472520500126637e-01 2.3632451931823661e-01 3.8138451550253361e-01  4.8472626351992071e-01 2.3635928165442924e-01 3.8137050569424780e-01  4.8472661868143407e-01 2.3637108631678069e-01 3.8136572301389454e-01  4.8472662575132769e-01 2.3637132161516364e-01 3.8136562762102844e-01  4.8472644707754980e-01 2.3636523896571557e-01 3.8136811699099632e-01  4.8472643235183704e-01 2.3636422585023531e-01 3.8136861772627673e-01  4.8472703278929008e-01 2.3638282453660672e-01 3.8136131618893460e-01  4.8473027654978035e-01 2.3648535941802595e-01 3.8132067749491949e-01  4.8473166706902276e-01 2.3652952808178374e-01 3.8130313004304767e-01  4.8473262542453849e-01 2.3656012020946240e-01 3.8129094793697854e-01  4.8473319403811954e-01 2.3657833958017394e-01 3.8128368000576168e-01  4.8473337748461381e-01 2.3658421860115419e-01 3.8128133452861984e-01  4.8473325254171834e-01 2.3658017679798576e-01 3.8128295382546984e-01  4.8473289905852179e-01 2.3656872661070083e-01 3.8128754383488911e-01  4.8473241655635096e-01 2.3655285255056499e-01 3.8129395056264742e-01  4.8473440770181941e-01 2.3661194391626919e-01 3.8127122473311786e-01  4.8473653015097368e-01 2.3667723119404011e-01 3.8124566706525215e-01  4.8473839820305287e-01 2.3673461947145077e-01 3.8122321262215803e-01  4.8473996706770439e-01 2.3678268963554189e-01 3.8120442593539194e-01  4.8474115747982427e-01 2.3681905985790552e-01 3.8119023021716225e-01  4.8474231346416502e-01 2.3685407637997061e-01 3.8117661879986431e-01  4.8474314186305284e-01 2.3687887294335286e-01 3.8116703590762352e-01  4.8474416308