<?xml version="1.0"?>
<VTKFile type="UnstructuredGrid"  version="0.1"  >
<UnstructuredGrid>
<Piece  NumberOfPoints="7288" NumberOfCells="14083">
<Points>
<DataArray  type="Float64"  NumberOfComponents="3"  format="ascii">239.8 188 0  250.2 180 0  258.2 172.4 0  257 169.4 0  259.9 157.4 0  258.7 150.3 0  261 143.5 0  251.7 144.4 0  250 138.7 0  247 138.1 0  245.2 130.8 0  247.3 126.4 0  242.7 118.6 0  231.2 107.7 0  226 102.4 0  226.5 93.90000000000001 0  224.5 91.19999999999999 0  224.5 84.09999999999999 0  234.5 73.80000000000001 0  228.4 68.90000000000001 0  230 70 0  233.4 68 0  222.7 61.5 0  220.6 45.5 0  223.4 49.40000000000001 0  224 47 0  221.8 43.09999999999999 0  221 38.40000000000001 0  219.5 38.5 0  219.4 41.69999999999999 0  217.1 36.90000000000001 0  209.7 36 0  209.5 31.69999999999999 0  205.1 29.90000000000001 0  201.5 30.40000000000001 0  199.2 38.69999999999999 0  201.8 41.40000000000001 0  194.8 53.80000000000001 0  196.1 57.69999999999999 0  193 59 0  191.4 66.09999999999999 0  193.5 66.5 0  194.1 64.40000000000001 0  195.6 64.69999999999999 0  195.4 72.40000000000001 0  199.5 77.30000000000001 0  197.7 86.90000000000001 0  200.6 87.5 0  201.5 91 0  198 94.80000000000001 0  198.6 100 0  197.3 105.4 0  198 109.5 0  197 112.7 0  198.3 116.1 0  201.3 122 0  207.2 121 0  208.1 126.7 0  205.6 127.9 0  209.1 134.9 0  210.9 144.4 0  210.1 147.9 0  213 148.4 0  215.4 149.3 0  215.1 152.8 0  219.9 159.7 0  220.3 163.2 0  218.7 164.9 0  219.9 166.7 0  221.9 169.7 0  220 170.3 0  224.9 174.7 0  229.8 177.4 0  229.7 181 0  228 172.9 0  239 178 0  240.4 180 0  239 181.5 0  241.2 185.9 0  242.95 187.99 0  240.5875 187.9975 0  241.375 187.995 0  242.1625 187.9925 0  243.6090909090879 187.2636363636397 0  244.2681818181765 186.5372727272785 0  244.9272727272692 185.810909090913 0  245.5863636363531 185.0845454545571 0  246.245454545445 184.3581818181923 0  246.9045454545351 183.6318181818295 0  247.5636363636303 182.9054545454612 0  248.2227272727197 182.1790909090992 0  248.8818181818179 181.4527272727275 0  249.5409090909066 180.7263636363664 0  250.8666666666961 179.3666666666387 0  251.5333333334033 178.7333333332668 0  252.2000000000994 178.0999999999055 0  252.8666666668011 177.466666666539 0  253.5333333335083 176.8333333331671 0  254.2000000002044 176.1999999998058 0  254.8666666669005 175.5666666664445 0  255.5333333336077 174.9333333330727 0  256.2000000002685 174.2999999997449 0  256.8666666668457 173.6666666664966 0  257.5333333334283 173.033333333243 0  257.9000000000077 171.6500000000191 0  257.6000000000015 170.9000000000038 0  257.2999999999954 170.1499999999885 0  257.2230769230778 168.4769230769195 0  257.4461538461543 167.5538461538442 0  257.6692307692309 166.6307692307688 0  257.8923076923074 165.7076923076935 0  258.115384615384 164.7846153846181 0  258.3384615384605 163.8615384615427 0  258.5615384615395 162.9384615384572 0  258.784615384616 162.0153846153819 0  259.0076923076926 161.0923076923065 0  259.2307692307691 160.1692307692311 0  259.4538461538457 159.2461538461558 0  259.6769230769222 158.3230769230804 0  259.750000000001 156.512500000006 0  259.6000000000014 155.6250000000082 0  259.4500000000029 154.7375000000176 0  259.3000000000018 153.8500000000108 0  259.1500000000007 152.962500000004 0  259.0000000000004 152.0750000000026 0  258.849999999999 151.187499999994 0  258.9875000000052 149.4499999999846 0  259.275000000002 148.5999999999941 0  259.5624999999954 147.7500000000135 0  259.849999999995 146.900000000015 0  260.1374999999945 146.0500000000164 0  260.4249999999913 145.2000000000259 0  260.7124999999948 144.3500000000154 0  260.0700000000398 143.5899999999961 0  259.1400000000573 143.6799999999944 0  258.2100000000351 143.7699999999966 0  257.2800000000262 143.8599999999975 0  256.350000000011 143.9499999999989 0  255.4199999999881 144.0400000000011 0  254.4899999999726 144.1300000000026 0  253.5599999999944 144.2200000000005 0  252.6300000000009 144.3099999999999 0  251.4166666666658 143.4499999999971 0  251.1333333333388 142.5000000000182 0  250.8500000000015 141.5500000000051 0  250.5666666666612 140.5999999999818 0  250.2833333333342 139.6500000000029 0  249.2500000000005 138.5500000000001 0  248.5000000000011 138.4000000000002 0  247.7499999999995 138.2499999999999 0  246.7750000000005 137.1875000000023 0  246.5500000000021 136.2750000000085 0  246.3250000000036 135.3625000000147 0  246.1000000000042 134.450000000017 0  245.8750000000022 133.5375000000088 0  245.650000000003 132.6250000000124 0  245.4250000000046 131.7125000000187 0  245.619999999996 129.9200000000084 0  246.0399999999992 129.0400000000017 0  246.4599999999987 128.1600000000028 0  246.8800000000001 127.2799999999997 0  246.8399999999988 125.6199999999979 0  246.3799999999984 124.8399999999973 0  245.9199999999991 124.0599999999985 0  245.4600000000036 123.2800000000062 0  245.0000000000049 122.5000000000082 0  244.5400000000036 121.7200000000062 0  244.0800000000033 120.9400000000056 0  243.6200000000016 120.1600000000027 0  243.1600000000012 119.3800000000021 0  241.9812499999996 117.9187499999997 0  241.2625000000007 117.2375000000007 0  240.5437500000017 116.5562500000017 0  239.8250000000041 115.875000000004 0  239.1062500000066 115.1937500000063 0  238.3875000000076 114.5125000000072 0  237.6687500000087 113.8312500000082 0  236.9500000000083 113.1500000000079 0  236.231250000008 112.4687500000076 0  235.512500000009 111.7875000000085 0  234.7937500000045 111.1062500000043 0  234.0750000000042 110.4250000000039 0  233.3562500000066 109.7437500000062 0  232.6375000000021 109.062500000002 0  231.9187500000031 108.381250000003 0  230.5500000000004 107.0375000000004 0  229.9000000000021 106.3750000000021 0  229.2500000000038 105.7125000000039 0  228.6000000000041 105.0500000000042 0  227.9500000000018 104.3875000000018 0  227.2999999999952 103.7249999999951 0  226.6500000000024 103.0625000000024 0  226.0555555555555 101.4555555555556 0  226.1111111111111 100.5111111111111 0  226.1666666666667 99.56666666666668 0  226.2222222222222 98.62222222222223 0  226.2777777777778 97.67777777777778 0  226.3333333333333 96.73333333333335 0  226.3888888888889 95.78888888888889 0  226.4444444444445 94.84444444444446 0  226 93.22499999999999 0  225.5000000000026 92.55000000000358 0  225.0000000000026 91.87500000000358 0  224.5 90.31250000000068 0  224.5 89.4250000000097 0  224.5 88.53750000001317 0  224.5 87.65000000001388 0  224.5 86.76250000001457 0  224.5 85.87500000001248 0  224.5 84.9874999999993 0  225.1666666666659 83.41333333333409 0  225.8333333333319 82.72666666666818 0  226.4999999999978 82.04000000000228 0  227.1666666666649 81.35333333333514 0  227.8333333333301 80.66666666667 0  228.4999999999942 79.980000000006 0  229.1666666666601 79.2933333333401 0  229.8333333333316 78.60666666666847 0  230.4999999999975 77.92000000000257 0  231.1666666666644 77.23333333333572 0  231.8333333333295 76.54666666667057 0  232.4999999999972 75.86000000000287 0  233.1666666666681 75.17333333333181 0  233.8333333333368 74.48666666666306 0  233.7499999999995 73.16666666666629 0  233.0000000000018 72.53333333333488 0  232.2500000000014 71.90000000000116 0  231.5000000000009 71.26666666666743 0  230.7500000000005 70.63333333333372 0  229.233333333333 68.75000000000006 0  230.0666666666665 68.60000000000004 0  230.8999999999995 68.45000000000009 0  231.7333333333325 68.30000000000015 0  232.566666666667 68.14999999999995 0  232.5499999999897 68.50000000000607 0  231.7 69 0  230.8500000000103 69.49999999999393 0  227.8300000000008 68.16000000000106 0  227.2600000000064 67.42000000000837 0  226.6900000000077 66.68000000001001 0  226.1200000000024 65.94000000000314 0  225.5500000000108 65.20000000001409 0  224.9800000000098 64.46000000001268 0  224.4100000000007 63.72000000000098 0  223.8399999999971 62.97999999999621 0  223.2699999999993 62.23999999999915 0  222.753846153846 60.56923076923239 0  222.8076923076921 59.63846153846478 0  222.8615384615381 58.70769230769827 0  222.9153846153842 57.77692307693071 0  222.9692307692302 56.84615384616315 0  223.0230769230761 55.91538461539836 0  223.0769230769224 54.98461538462665 0  223.1307692307688 54.05384615385345 0  223.184615384615 53.12307692308312 0  223.2384615384611 52.19230769231556 0  223.2923076923071 51.26153846154906 0  223.3461538461533 50.33076923077847 0  222.8400000000024 48.62000000000327 0  222.2800000000047 47.84000000000661 0  221.7200000000005 47.06000000000071 0  221.1600000000003 46.28000000000039 0  221.4500000000116 45.87500000000512 0  222.3 46.25 0  223.1499999999884 46.62499999999488 0  223.5600000000055 46.22000000000981 0  223.1199999999987 45.43999999999767 0  222.6800000000061 44.66000000001075 0  222.2399999999969 43.8799999999944 0  221.6400000000004 42.16000000000253 0  221.4800000000009 41.22000000000548 0  221.3200000000014 40.28000000000801 0  221.1600000000009 39.34000000000556 0  220.25 38.45 0  219.4749999999999 39.30000000000165 0  219.45 40.09999999999999 0  219.425 40.90000000000112 0  219.0166666666641 40.89999999999463 0  218.6333333333375 40.10000000000875 0  218.2500000000016 39.30000000000339 0  217.8666666666635 38.49999999999351 0  217.483333333337 37.70000000000762 0  216.1750000000165 36.78750000000201 0  215.2500000000275 36.67500000000335 0  214.3250000000385 36.56250000000469 0  213.4000000000277 36.45000000000337 0  212.4750000000059 36.33750000000072 0  211.5499999999838 36.22499999999803 0  210.6249999999835 36.11249999999799 0  209.6600000000001 35.14000000000318 0  209.6200000000001 34.28000000000268 0  209.5800000000001 33.42000000000284 0  209.5399999999998 32.55999999999681 0  208.6200000000117 31.34000000000476 0  207.7400000000138 30.98000000000564 0  206.8600000000162 30.62000000000662 0  205.9800000000174 30.26000000000711 0  204.2000000000054 30.02499999999925 0  203.2999999999946 30.15000000000076 0  202.3999999999945 30.27500000000076 0  201.2444444444438 31.32222222222468 0  200.9888888888895 32.24444444
[...]
<PointData  Vectors="f_12"> 
<DataArray  type="Float64"  Name="f_12"  NumberOfComponents="3" format="ascii">6.2116166255857908e-01 2.7256549735249669e-01 1.0288867406841951e+00  6.2116166244363114e-01 2.7256549690805232e-01 1.0288867407052100e+00  6.2116166065097311e-01 2.7256548998393554e-01 1.0288867410306475e+00  6.2116165283732527e-01 2.7256545984452857e-01 1.0288867424360004e+00  6.2116029352844349e-01 2.7256025650736487e-01 1.0288869737776920e+00  6.2114295607869896e-01 2.7249479328354370e-01 1.0288895993149914e+00  6.2114163122872268e-01 2.7248971313257386e-01 1.0288898298673457e+00  6.2001864176432631e-01 2.6845648998841598e-01 1.0288797843074906e+00  6.1309264302677657e-01 2.4555252179912784e-01 1.0251538328007341e+00  5.9902427137627423e-01 2.0765607821728632e-01 9.9764572871461177e-01  5.0274199311342405e-01 9.6747813129094418e-02 4.7971559599605146e-01  4.7392946720823320e-01 1.1645138730473484e-01 2.6810438346859877e-01  4.8879467823771133e-01 3.1765542934377744e-01 2.5247804692702258e-01  4.8159475052466583e-01 1.0088622019928629e-01 3.4002299267523078e-01  4.6639163257877003e-01 1.3789186648103943e-01 2.0456549466184654e-01  4.6665137583899646e-01 2.8421388537291586e-01 1.1867895875438633e-01  4.7055743784495879e-01 3.2699131061459424e-01 1.1384997821008862e-01  4.8183858027554732e-01 4.1508836567981072e-01 1.1892715958241554e-01  4.8901101852415241e-01 4.4849936596144613e-01 1.3785397401781802e-01  4.9058656179461796e-01 4.5988378770457577e-01 1.3783177951185335e-01  4.9033095123173931e-01 4.5737830854612449e-01 1.3847646569197491e-01  4.9072724793867167e-01 4.5891844320352848e-01 1.3972548395208934e-01  4.8439294691291052e-01 4.2771772496416660e-01 1.2510889673100134e-01  4.7339316759795474e-01 3.5632331694254721e-01 1.1104884530104885e-01  4.7241850106158079e-01 3.4874476758851669e-01 1.1050023314644257e-01  4.7290454704928975e-01 3.5322966679460466e-01 1.1022979751336466e-01  4.7390130515590451e-01 3.6025090814025673e-01 1.1133411238416151e-01  4.7400948761111777e-01 3.6158519329299904e-01 1.1101927870611747e-01  4.7401991042519032e-01 3.6165313536301574e-01 1.1103435849446487e-01  4.7545219608843570e-01 3.7084267231351481e-01 1.1317023250184181e-01  4.8215111680754769e-01 4.1397924222267413e-01 1.2212667504390280e-01  4.9419037198512095e-01 4.6828017736948618e-01 1.5395794279600383e-01  5.0154101566445952e-01 4.9346415262998211e-01 1.7941096547964003e-01  5.0316817304543038e-01 4.9704293376570446e-01 1.8692839698518199e-01  5.0325677731696938e-01 4.9694453013869277e-01 1.8764883278414834e-01  4.9671424149879828e-01 4.7655080329941235e-01 1.6330653351326241e-01  4.8851655021599677e-01 4.3866057112981144e-01 1.4283812081864705e-01  4.6621500600954019e-01 2.9771220770334705e-01 1.0701717070042792e-01  4.6510510067275596e-01 2.8888428678755818e-01 1.0581600463525223e-01  4.6420783666762117e-01 2.8143014314221032e-01 1.0501197271725082e-01  4.6200705676204645e-01 2.6111204470973343e-01 1.0399100291895699e-01  4.6222718694110193e-01 2.6320473347260009e-01 1.0406137740352497e-01  4.6368848909789012e-01 2.7681656151140244e-01 1.0467428179997680e-01  4.6344256958634766e-01 2.7449890848338304e-01 1.0457835837891424e-01  4.6233316588387668e-01 2.6464377244107523e-01 1.0378422540379424e-01  4.6335332724132078e-01 2.7552778032354258e-01 1.0317677983964058e-01  4.6215508324796417e-01 2.6447525233646285e-01 1.0262676668035227e-01  4.6189214936516859e-01 2.6020442055587623e-01 1.0362631378278582e-01  4.5989202389445172e-01 2.2977044902251745e-01 1.0944646173876725e-01  4.5791364858402833e-01 1.8920534025056643e-01 1.1997973058962658e-01  4.5933045267276623e-01 1.5050519900675258e-01 1.4910374889224537e-01  4.6715353607367049e-01 1.0772197902360023e-01 2.2194621919919669e-01  4.8262262015288843e-01 8.9090683708304017e-02 3.4228776936358274e-01  4.9858353388829552e-01 8.2675040352251136e-02 4.6661943730576311e-01  5.1455151780996622e-01 8.8020038690131377e-02 5.8811968161858641e-01  5.3255194276545115e-01 1.0754684349737179e-01 7.1919261789596456e-01  5.0215225548633113e-01 1.4788926541215930e-01 4.7988702053091459e-01  4.7417647925731776e-01 1.9201119937837127e-01 2.3699356724799425e-01  4.6878998321234733e-01 1.6664941090745303e-01 2.1111162629908331e-01  4.9298702621263546e-01 1.0062351473384865e-01 4.1012589376487768e-01  5.9791860730199875e-01 2.0310443906469405e-01 9.9810146827661994e-01  6.0973963550912236e-01 2.3446688729894452e-01 1.0225047935328861e+00  6.1121573864783607e-01 2.3912043072081668e-01 1.0239857709748466e+00  6.1570695853898860e-01 2.5372687891148837e-01 1.0273172585658021e+00  6.1978283008828106e-01 2.6757225198849033e-01 1.0288975166028425e+00  6.2108742514441861e-01 2.7228633105224320e-01 1.0288972319238381e+00  6.2115201481390259e-01 2.7252883078327561e-01 1.0288882843062779e+00  6.2115850943341300e-01 2.7255345299990058e-01 1.0288872680657457e+00  6.2115991445218233e-01 2.7255880805675903e-01 1.0288870372332457e+00  6.2116120217485482e-01 2.7256372912296811e-01 1.0288868209984356e+00  6.2116117188643649e-01 2.7256361235563503e-01 1.0288868264275171e+00  6.2116160825206701e-01 2.7256528802017294e-01 1.0288867504053767e+00  6.2116165887565611e-01 2.7256548313527257e-01 1.0288867413502096e+00  6.2116166174000131e-01 2.7256549418929954e-01 1.0288867408332645e+00  6.2116160532361975e-01 2.7256527686605714e-01 1.0288867508860360e+00  6.2116166122804617e-01 2.7256549221315657e-01 1.0288867409257934e+00  6.2116166229646064e-01 2.7256549633950189e-01 1.0288867407319608e+00  6.2116166249290172e-01 2.7256549709856748e-01 1.0288867406961981e+00  6.2116166255483718e-01 2.7256549733802343e-01 1.0288867406848807e+00  6.2116166255779759e-01 2.7256549734947405e-01 1.0288867406843381e+00  6.2116166255845739e-01 2.7256549735202529e-01 1.0288867406842175e+00  6.2116166255822547e-01 2.7256549735112823e-01 1.0288867406842599e+00  6.2116166255800020e-01 2.7256549735025715e-01 1.0288867406843010e+00  6.2116166255709848e-01 2.7256549734676772e-01 1.0288867406844666e+00  6.2116166255565253e-01 2.7256549734117386e-01 1.0288867406847324e+00  6.2116166255342653e-01 2.7256549733256324e-01 1.0288867406851405e+00  6.2116166255018179e-01 2.7256549732001195e-01 1.0288867406857356e+00  6.2116166254556937e-01 2.7256549730217272e-01 1.0288867406865805e+00  6.2116166253920102e-01 2.7256549727754387e-01 1.0288867406877469e+00  6.2116166253006611e-01 2.7256549724221801e-01 1.0288867406894187e+00  6.2116166251752536e-01 2.7256549719372397e-01 1.0288867406917133e+00  6.2116166250059601e-01 2.7256549712826639e-01 1.0288867406948081e+00  6.2116166247657656e-01 2.7256549703540661e-01 1.0288867406991959e+00  6.2116166240546178e-01 2.7256549676051262e-01 1.0288867407121751e+00  6.2116166235977677e-01 2.7256549658393264e-01 1.0288867407205076e+00  6.2116166230040371e-01 2.7256549635446886e-01 1.0288867407313300e+00  6.2116166222475100e-01 2.7256549606211489e-01 1.0288867407451112e+00  6.2116166212942125e-01 2.7256549569375682e-01 1.0288867407624651e+00  6.2116166201253753e-01 2.7256549524214863e-01 1.0288867407837308e+00  6.2116166186219413e-01 2.7256549466132773e-01 1.0288867408110627e+00  6.2116166167336406e-01 2.7256549393190510e-01 1.0288867408453650e+00  6.2116166144142737e-01 2.7256549303608019e-01 1.0288867408874622e+00  6.2116166116559324e-01 2.7256549197085439e-01 1.0288867409374793e+00  6.2116166086815772e-01 2.7256549082239040e-01 1.0288867409913547e+00  6.2116166022226249e-01 2.7256548832939081e-01 1.0288867411080422e+00  6.2116165910284915e-01 2.7256548400991648e-01 1.0288867413098917e+00  6.2116165699410752e-01 2.7256547587502311e-01 1.0288867416894558e+00  6.2116164557968945e-01 2.7256543186666915e-01 1.0288867437358922e+00  6.2116163608955921e-01 2.7256539530083967e-01 1.0288867454297359e+00  6.2116162240024941e-01 2.7256534258359094e-01 1.0288867478639090e+00  6.2116160242246499e-01 2.7256526569357192e-01 1.0288867514019313e+00  6.2116157343615308e-01 2.7256515420046523e-01 1.0288867565129021e+00  6.2116153181499489e-01 2.7256499421564268e-01 1.0288867638166463e+00  6.2116147278484557e-01 2.7256476747745151e-01 1.0288867741215086e+00  6.2116139019330008e-01 2.7256445048655431e-01 1.0288867884577368e+00  6.2116127565678547e-01 2.7256401127278090e-01 1.0288868082119822e+00  6.2116111569496535e-01 2.7256339849574829e-01 1.0288868355913627e+00  6.2116090208613350e-01 2.7256258104547532e-01 1.0288868718733499e+00  6.2116062059553312e-01 2.7256150511820315e-01 1.0288869192482741e+00  6.2115980676280258e-01 2.7255840137983794e-01 1.0288870538526584e+00  6.2115902399993617e-01 2.7255542250230869e-01 1.0288871811087283e+00  6.2115788967935648e-01 2.7255111305817004e-01 1.0288873629216124e+00  6.2115629401743711e-01 2.7254506270721518e-01 1.0288876144089507e+00  6.2115412276376170e-01 2.7253684681454304e-01 1.0288879503270942e+00  6.2115127023987948e-01 2.7252607649101962e-01 1.0288883826910473e+00  6.2114760710110439e-01 2.7251227626489299e-01 1.0288889257876985e+00  6.2113985035986152e-01 2.7248311785513585e-01 1.0288900495023461e+00  6.2113774697077695e-01 2.7247522589470963e-01 1.0288903476769125e+00  6.2113709499879977e-01 2.7247277346241927e-01 1.0288904426996459e+00  6.2113730949768164e-01 2.7247356946586754e-01 1.0288904156899723e+00  6.2113833050171519e-01 2.7247738211966971e-01 1.0288902779987330e+00  6.2113973336155870e-01 2.7248262329446532e-01 1.0288900875401656e+00  6.2114104733192732e-01 2.7248753231683692e-01 1.0288899089872330e+00  6.2114045930807560e-01 2.7248534213761993e-01 1.0288899858414948e+00  6.2113589486369258e-01 2.7246833806387905e-01 1.0288905826155155e+00  6.2112629797381391e-01 2.7243266192145338e-01 1.0288917943769111e+00  6.2110929360406908e-01 2.7236963819343185e-01 1.0288938232305327e+00  6.2108045071204521e-01 2.7226316778877985e-01 1.0288969616939148e+00  6.2103287474704383e-01 2.7208840423883734e-01 1.0289014394192955e+00  6.2095429475404007e-01 2.7180147241739755e-01 1.0289071797798859e+00  6.2082156320137327e-01 2.7132027785852170e-01 1.0289129114266713e+00  6.2057886686639896e-01 2.7044824066617423e-01 1.0289128278846065e+00  6.1906489839595513e-01 2.6511488831865232e-01 1.0287395887707762e+00  6.1809605046455718e-01 2.6178127375657295e-01 1.0284837758907437e+00  6.1692397156968015e-01 2.5783448435544754e-01 1.0280065462756758e+00  6.1557358498948889e-01 2.5339340652883735e-01 1.0272390826952258e+00  6.1417357777397663e-01 2.4890467297927943e-01 1.0261995411517666e+00  6.1215720257060979e-01 2.4278789136522475e-01 1.0239492754058368e+00  6.0992904960175498e-01 2.3639117662294493e-01 1.0206154802475305e+00  6.0609939914540401e-01 2.2590075791632000e-01 1.0135937537700361e+00  5.8740030222447848e-01 1.8057688296571045e-01 9.6405096748742913e-01  5.7665943871020509e-01 1.5905725274975402e-01 9.2431668527080058e-01  5.6541516461794783e-01 1.4028833430840451e-01 8.7388085770699497e-01  5.5358302814570026e-01 1.2445828633239045e-01 8.1219339965315862e-01  5.4136044761392388e-01 1.1209371750885386e-01 7.4053227370811570e-01  5.2898909223299040e-01 1.0340188661713795e-01 6.6146979675029405e-01  5.1649104897347720e-01 9.8315985991594163e-02 5.7664976086292130e-01  4.9113640071810921e-01 9.8672087473403502e-02 3.9629068348179924e-01  4.8377087920502954e-01 1.0233345309230807e-01 3.4268529943595122e-01  4.7872208968206520e-01 1.0713592116545749e-01 3.0529754413104487e-01  4.7546092980760940e-01 1.1236072260009276e-01 2.8042802770425573e-01  4.7316809055722148e-01 1.2210084686057157e-01 2.6043390551730361e-01  4.7243263915605804e-01 1.3315290309979666e-01 2.5043868009467274e-01  4.7212932615601699e-01 1.4872224332373141e-01 2.4096131238819546e-01  4.7247199827443809e-01 1.6854327767007513e-01 2.3320736513196472e-01  4.7359689791363435e-01 1.9189313081703663e-01 2.2817105754086245e-01  4.7554009168406042e-01 2.1802986919857656e-01 2.2626938794753892e-01  4.7825162286112993e-01 2.4567059456160184e-01 2.2781997043407087e-01  4.8158205435394263e-01 2.7304153708859924e-01 2.3298845744666671e-01  4.8526374076717121e-01 2.9800327111415331e-01 2.4157651708376021e-01  4.9274972407226569e-01 3.3423827226906000e-01 2.6863635308787520e-01  4.9694486383416397e-01 3.4580921367161738e-01 2.9074262414731666e-01  5.0070809570937835e-01 3.4945919933024672e-01 3.1668070040618174e-01  5.0360192060241482e-01 3.4385828083761405e-01 3.4461401209014025e-01  5.0532896241378189e-01 3.2947071202543121e-01 3.7178193929333880e-01  5.0572410601215567e-01 3.0759161178011490e-01 3.9526219575883326e-01  5.0482391229379009e-01 2.8045134863073479e-01 4.1254043324932760e-01  5.0283696933313782e-01 2.5071101706606913e-01 4.2207910044580027e-01  5.0009347781745916e-01 2.2095508303610256e-01 4.2373256859466935e-01  4.9695589503165066e-01 1.9308188218445269e-01 4.1865787985010450e-01  4.9375961960624859e-01 1.6839274057617859e-01 4.0880300475647535e-01  4.9074450933679475e-01 1.4755517710062277e-01 3.9615914893471194e-01  4.8803650603451793e-01 1.3056911615287672e-01 3.8235019203391912e-01  4.8567138778570357e-01 1.1754906143191492e-01 3.6829863357238712e-01  4.8356293427523267e-01 1.0777287510298840e-01 3.5428949707914331e-01  4.7980690440923707e-01 9.6900654683611392e-02 3.2625501193309153e-01  4.7802696201025063e-01 9.5173183363361391e-02 3.1201064509049053e-01  4.7620383953573719e-01 9.5477902288791230e-02 2.9704493285709138e-01  4.7432298774523979e-01 9.7944458793999059e-02 2.8122117849279221e-01  4.7241007549842151e-01 1.0258695668777909e-01 2.6465044711886443e-01  4.7048368091401382e-01 1.0978848659081621e-01 2.4718763219504461e-01  4.6853552534324838e-01 1.2052799427210006e-01 2.2815580794120882e-01  4.6475494899283765e-01 1.5933851119458983e-01 1.8219865617824557e-01  4.6394507623982700e-01 1.7812517079022408e-01 1.6648948696163701e-01  4.6362668073413960e-01 1.9633082477952793e-01 1.5402586497143006e-01  4.6368518364772854e-01 2.1413945578621396e-01 1.4392914018755595e-01  4.6403671973060706e-01 2.3136328232369782e-01 1.3576736823953159e-01  4.6460752040783720e-01 2.4765717153538777e-01 1.2929937368298003e-01  4.6531395983351848e-01 2.6254455868750137e-01 1.2433732595639276e-01  4.6605351220025354e-01 2.7530354790138095e-01 1.2076204789790289e-01  4.6717740918551726e-01 2.9089549168024909e-01 1.1751916928931772e-01  4.6800440509383445e-01 3.0054858750584840e-01 1.1617967528831519e-01  4.6907209725853338e-01 3.1205513834474952e-01 1.1497228711038465e-01  4.7228235476088892e-01 3.4325630661123363e-01 1.1309604014577793e-01  4.7375678086985318e-01 3.5633619825111096e-01 1.1286686482820493e-01  4.7512439332381506e-01 3.6779068371221135e-01 1.1300637506385482e-01  4.7642559380903832e-01 3.7810312777787447e-01 1.1345919246081761e-01  4.7769657280845984e-01 3.8761833976190968e-01 1.1422517286563237e-01  4.7893778379922408e-01 3.9638843560569781e-01 1.1528919297645658e-01  4.8023041164543312e-01 4.0500239304419972e-01 1.1672688575857408e-01  4.8346376464182811e-01 4.2468825279203465e-01 1.2155294066497736e-01  4.8463197796420526e-01 4.3117119691314520e-01 1.2373880512933137e-01  4.8557672539783320e-01 4.3608546342212484e-01 1.2575678707916083e-01  4.8635507758879598e-01 4.3985791024133147e-01 1.2764202947846784e-01  4.8699512075315721e-01 4.4272212296577595e-01 1.2939294453103153e-01  4.8751651893405779e-01 4.4484859024755391e-01 1.3099992573479971e-01  4.8793420482908179e-01 4.4636946192966426e-01 1.3245099608110414e-01  4.8826151594873857e-01 4.4739994629059704e-01 1.3373552139007602e-01  4.8851255308648361e-01 4.4805255725171794e-01 1.3484819524148034e-01  4.8869884249662265e-01 4.4841873494330220e-01 1.3578414474127287e-01  4.8883261985463361e-01 4.4858820358290835e-01 1.3654396967943647e-01  4.8892285044611189e-01 4.4862778452115376e-01 1.3712678741543952e-01  4.8897821272145936e-01 4.4859813455415665e-01 1.3753523965870412e-01  4.8900718859808467e-01 4.4855445349855400e-01 1.3777558638816320e-01  4.8905034159651750e-01 4.4877686488635277e-01 1.3786168907830793e-01  4.8916750017430149e-01 4.4957901441421599e-01 1.3790736285967992e-01  4.8935924121712238e-01 4.5088417053500152e-01 1.3798750091819356e-01  4.8961306524896386e-01 4.5261354121672903e-01 1.3808866780596971e-01  4.8992539293436987e-01 4.5472798386890489e-01 1.3822085658842295e-01  4.9052233615873619e-01 4.5877697213369306e-01 1.3845275650341676e-01  4.9054879916540017e-01 4.5850842498525102e-01 1.3889234862483144e-01  4.9061792529280651e-01 4.5863662868037464e-01 1.3924459468497458e-01  4.9067453596649441e-01 4.5877990909120819e-01 1.3949620613619251e-01  4.9071044675865416e-01 4.5887482804270241e-01 1.3965189748475146e-01  4.9070704383885744e-01 4.5886593383360097e-01 1.3963705062046219e-01  4.9065769706439999e-01 4.5873084269007325e-01 1.3942755360717796e-01  4.9056547332483519e-01 4.5843573313943536e-01 1.3907657411462401e-01  4.9070904824285927e-01 4.6148652015890229e-01 1.3713315934764042e-01  4.9072065077435556e-01 4.6225297185598568e-01 1.3647482135197503e-01  4.9060257795660200e-01 4.6219787900885523e-01 1.3571434161620516e-01  4.9033409656559301e-01 4.6121553783657782e-01 1.3480868501303223e-01  4.8989813458099624e-01 4.5919592054720787e-01 1.3373948231957633e-01  4.8927961359189048e-01 4.5602974642363775e-01 1.3249526406808709e-01  4.8846512595889324e-01 4.5160985061790798e-01 1.3106646668162381e-01  4.8743796147476331e-01 4.4580220748726990e-01 1.2943693041829513e-01  4.8615072264101328e-01 4.3828288629865092e-01 1.2754421109923181e-01  4.8257318594495424e-01 4.1649526820745630e-01 1.2270365164177795e-01  4.8111049506507708e-01 4.0726807557095140e-01 1.2083642893031414e-01  4.7976992914435518e-01 3.9864712519124706e-01 1.1916963737178979e-01  4.7852723271315284e-01 3.9051306982180295e-01 1.1765957059171307e-01  4.7737169191281431e-01 3.8283022911875614e-01 1.1628181889500598e-01  4.7631522303160884e-01 3.7570656213368664e-01 1.1504186406486286e-01  4.7536742549013489e-01 3.6923709722720988e-01 1.1394260361593263e-01  4.7453855977642406e-01 3.6352143270485671e-01 1.1298837899688635e-01  4.7383724250705367e-01 3.5864676358568348e-01 1.1218263084178161e-01  4.7327141916209481e-01 3.5469294000262142e-01 1.1152920256603828e-01  4.7284476889908539e-01 3.5170629237679313e-01 1.1102872451288699e-01  4.7255860546323819e-01 3.4971001462383172e-01 1.1068167645774543e-01  4.7238445138242718e-01 3.4854845545150581e-01 1.1042579713621302e-01  4.7243768004161024e-01 3.4900591119026270e-01 1.1042288671296965e-01  4.7261059916376746e-01 3.5034618288639957e-01 1.1052731820700037e-01  4.7292045841029173e-01 3.5270095253219486e-01 1.1074689204019701e-01  4.7323629031378078e-01 3.5544944034303655e-01 1.1069519774119593e-01  4.7306593390335194e-01 3.5432838897911212e-01 1.1044241788275080e-01  4.7295117503562883e-01 3.5354921516878574e-01 1.1028974881105935e-01  4.7294868520765287e-01 3.5353224842621878e-01 1.1028647433215855e-01  4.7306041439416852e-01 3.5430092317224104e-01 1.1042721165471765e-01  4.7325253394969846e-01 3.5563583136672511e-01 1.1065696593945008e-01  4.7353521201578896e-01 3.5763114514820699e-01 1.1096678856413293e-01  4.7419489855653013e-01 3.6241690937935206e-01 1.1157469839684835e-01  4.7427397549274242e-01 3.6311297256294528e-01 1.1155381108329511e-01  4.7418544558612102e-01 3.6264986995609838e-01 1.1133877105489189e-01  4.7406303562958141e-01 3.6191382980553161e-01 1.1111314888158211e-01  4.7401815407947145e-01 3.6164051690482241e-01 1.1103274536653221e-01  4.7407416069247915e-01 3.6199407850110105e-01 1.1112286911269151e-01  4.7423606668727036e-01 3.6301540541802368e-01 1.1138262793251000e-01  4.7460050953003641e-01 3.6534424417000355e-01 1.1193721896707814e-01  4.7732576102714602e-01 3.8322841054231366e-01 1.1558874303684340e-01  4.7868449232577487e-01 3.9213614504487598e-01 1.1732883709537563e-01  4.7985782234901481e-01 3.9970961313978182e-01 1.1886311394696103e-01  4.8087656397715145e-01 4.0616069358961299e-01 1.2024885713156695e-01  4.8168700646792240e-01 4.1118089090510751e-01 1.2141139571191034e-01  4.8263168424300890e-01 4.1667937468794181e-01 1.2301222501800303e-01  4.8346545958543147e-01 4.2118162161187678e-01 1.2467987882789994e-01  4.8453784154