<?xml version="1.0"?>
<VTKFile type="UnstructuredGrid"  version="0.1"  >
<UnstructuredGrid>
<Piece  NumberOfPoints="7288" NumberOfCells="14083">
<Points>
<DataArray  type="Float64"  NumberOfComponents="3"  format="ascii">239.8 188 0  250.2 180 0  258.2 172.4 0  257 169.4 0  259.9 157.4 0  258.7 150.3 0  261 143.5 0  251.7 144.4 0  250 138.7 0  247 138.1 0  245.2 130.8 0  247.3 126.4 0  242.7 118.6 0  231.2 107.7 0  226 102.4 0  226.5 93.90000000000001 0  224.5 91.19999999999999 0  224.5 84.09999999999999 0  234.5 73.80000000000001 0  228.4 68.90000000000001 0  230 70 0  233.4 68 0  222.7 61.5 0  220.6 45.5 0  223.4 49.40000000000001 0  224 47 0  221.8 43.09999999999999 0  221 38.40000000000001 0  219.5 38.5 0  219.4 41.69999999999999 0  217.1 36.90000000000001 0  209.7 36 0  209.5 31.69999999999999 0  205.1 29.90000000000001 0  201.5 30.40000000000001 0  199.2 38.69999999999999 0  201.8 41.40000000000001 0  194.8 53.80000000000001 0  196.1 57.69999999999999 0  193 59 0  191.4 66.09999999999999 0  193.5 66.5 0  194.1 64.40000000000001 0  195.6 64.69999999999999 0  195.4 72.40000000000001 0  199.5 77.30000000000001 0  197.7 86.90000000000001 0  200.6 87.5 0  201.5 91 0  198 94.80000000000001 0  198.6 100 0  197.3 105.4 0  198 109.5 0  197 112.7 0  198.3 116.1 0  201.3 122 0  207.2 121 0  208.1 126.7 0  205.6 127.9 0  209.1 134.9 0  210.9 144.4 0  210.1 147.9 0  213 148.4 0  215.4 149.3 0  215.1 152.8 0  219.9 159.7 0  220.3 163.2 0  218.7 164.9 0  219.9 166.7 0  221.9 169.7 0  220 170.3 0  224.9 174.7 0  229.8 177.4 0  229.7 181 0  228 172.9 0  239 178 0  240.4 180 0  239 181.5 0  241.2 185.9 0  242.95 187.99 0  240.5875 187.9975 0  241.375 187.995 0  242.1625 187.9925 0  243.6090909090879 187.2636363636397 0  244.2681818181765 186.5372727272785 0  244.9272727272692 185.810909090913 0  245.5863636363531 185.0845454545571 0  246.245454545445 184.3581818181923 0  246.9045454545351 183.6318181818295 0  247.5636363636303 182.9054545454612 0  248.2227272727197 182.1790909090992 0  248.8818181818179 181.4527272727275 0  249.5409090909066 180.7263636363664 0  250.8666666666961 179.3666666666387 0  251.5333333334033 178.7333333332668 0  252.2000000000994 178.0999999999055 0  252.8666666668011 177.466666666539 0  253.5333333335083 176.8333333331671 0  254.2000000002044 176.1999999998058 0  254.8666666669005 175.5666666664445 0  255.5333333336077 174.9333333330727 0  256.2000000002685 174.2999999997449 0  256.8666666668457 173.6666666664966 0  257.5333333334283 173.033333333243 0  257.9000000000077 171.6500000000191 0  257.6000000000015 170.9000000000038 0  257.2999999999954 170.1499999999885 0  257.2230769230778 168.4769230769195 0  257.4461538461543 167.5538461538442 0  257.6692307692309 166.6307692307688 0  257.8923076923074 165.7076923076935 0  258.115384615384 164.7846153846181 0  258.3384615384605 163.8615384615427 0  258.5615384615395 162.9384615384572 0  258.784615384616 162.0153846153819 0  259.0076923076926 161.0923076923065 0  259.2307692307691 160.1692307692311 0  259.4538461538457 159.2461538461558 0  259.6769230769222 158.3230769230804 0  259.750000000001 156.512500000006 0  259.6000000000014 155.6250000000082 0  259.4500000000029 154.7375000000176 0  259.3000000000018 153.8500000000108 0  259.1500000000007 152.962500000004 0  259.0000000000004 152.0750000000026 0  258.849999999999 151.187499999994 0  258.9875000000052 149.4499999999846 0  259.275000000002 148.5999999999941 0  259.5624999999954 147.7500000000135 0  259.849999999995 146.900000000015 0  260.1374999999945 146.0500000000164 0  260.4249999999913 145.2000000000259 0  260.7124999999948 144.3500000000154 0  260.0700000000398 143.5899999999961 0  259.1400000000573 143.6799999999944 0  258.2100000000351 143.7699999999966 0  257.2800000000262 143.8599999999975 0  256.350000000011 143.9499999999989 0  255.4199999999881 144.0400000000011 0  254.4899999999726 144.1300000000026 0  253.5599999999944 144.2200000000005 0  252.6300000000009 144.3099999999999 0  251.4166666666658 143.4499999999971 0  251.1333333333388 142.5000000000182 0  250.8500000000015 141.5500000000051 0  250.5666666666612 140.5999999999818 0  250.2833333333342 139.6500000000029 0  249.2500000000005 138.5500000000001 0  248.5000000000011 138.4000000000002 0  247.7499999999995 138.2499999999999 0  246.7750000000005 137.1875000000023 0  246.5500000000021 136.2750000000085 0  246.3250000000036 135.3625000000147 0  246.1000000000042 134.450000000017 0  245.8750000000022 133.5375000000088 0  245.650000000003 132.6250000000124 0  245.4250000000046 131.7125000000187 0  245.619999999996 129.9200000000084 0  246.0399999999992 129.0400000000017 0  246.4599999999987 128.1600000000028 0  246.8800000000001 127.2799999999997 0  246.8399999999988 125.6199999999979 0  246.3799999999984 124.8399999999973 0  245.9199999999991 124.0599999999985 0  245.4600000000036 123.2800000000062 0  245.0000000000049 122.5000000000082 0  244.5400000000036 121.7200000000062 0  244.0800000000033 120.9400000000056 0  243.6200000000016 120.1600000000027 0  243.1600000000012 119.3800000000021 0  241.9812499999996 117.9187499999997 0  241.2625000000007 117.2375000000007 0  240.5437500000017 116.5562500000017 0  239.8250000000041 115.875000000004 0  239.1062500000066 115.1937500000063 0  238.3875000000076 114.5125000000072 0  237.6687500000087 113.8312500000082 0  236.9500000000083 113.1500000000079 0  236.231250000008 112.4687500000076 0  235.512500000009 111.7875000000085 0  234.7937500000045 111.1062500000043 0  234.0750000000042 110.4250000000039 0  233.3562500000066 109.7437500000062 0  232.6375000000021 109.062500000002 0  231.9187500000031 108.381250000003 0  230.5500000000004 107.0375000000004 0  229.9000000000021 106.3750000000021 0  229.2500000000038 105.7125000000039 0  228.6000000000041 105.0500000000042 0  227.9500000000018 104.3875000000018 0  227.2999999999952 103.7249999999951 0  226.6500000000024 103.0625000000024 0  226.0555555555555 101.4555555555556 0  226.1111111111111 100.5111111111111 0  226.1666666666667 99.56666666666668 0  226.2222222222222 98.62222222222223 0  226.2777777777778 97.67777777777778 0  226.3333333333333 96.73333333333335 0  226.3888888888889 95.78888888888889 0  226.4444444444445 94.84444444444446 0  226 93.22499999999999 0  225.5000000000026 92.55000000000358 0  225.0000000000026 91.87500000000358 0  224.5 90.31250000000068 0  224.5 89.4250000000097 0  224.5 88.53750000001317 0  224.5 87.65000000001388 0  224.5 86.76250000001457 0  224.5 85.87500000001248 0  224.5 84.9874999999993 0  225.1666666666659 83.41333333333409 0  225.8333333333319 82.72666666666818 0  226.4999999999978 82.04000000000228 0  227.1666666666649 81.35333333333514 0  227.8333333333301 80.66666666667 0  228.4999999999942 79.980000000006 0  229.1666666666601 79.2933333333401 0  229.8333333333316 78.60666666666847 0  230.4999999999975 77.92000000000257 0  231.1666666666644 77.23333333333572 0  231.8333333333295 76.54666666667057 0  232.4999999999972 75.86000000000287 0  233.1666666666681 75.17333333333181 0  233.8333333333368 74.48666666666306 0  233.7499999999995 73.16666666666629 0  233.0000000000018 72.53333333333488 0  232.2500000000014 71.90000000000116 0  231.5000000000009 71.26666666666743 0  230.7500000000005 70.63333333333372 0  229.233333333333 68.75000000000006 0  230.0666666666665 68.60000000000004 0  230.8999999999995 68.45000000000009 0  231.7333333333325 68.30000000000015 0  232.566666666667 68.14999999999995 0  232.5499999999897 68.50000000000607 0  231.7 69 0  230.8500000000103 69.49999999999393 0  227.8300000000008 68.16000000000106 0  227.2600000000064 67.42000000000837 0  226.6900000000077 66.68000000001001 0  226.1200000000024 65.94000000000314 0  225.5500000000108 65.20000000001409 0  224.9800000000098 64.46000000001268 0  224.4100000000007 63.72000000000098 0  223.8399999999971 62.97999999999621 0  223.2699999999993 62.23999999999915 0  222.753846153846 60.56923076923239 0  222.8076923076921 59.63846153846478 0  222.8615384615381 58.70769230769827 0  222.9153846153842 57.77692307693071 0  222.9692307692302 56.84615384616315 0  223.0230769230761 55.91538461539836 0  223.0769230769224 54.98461538462665 0  223.1307692307688 54.05384615385345 0  223.184615384615 53.12307692308312 0  223.2384615384611 52.19230769231556 0  223.2923076923071 51.26153846154906 0  223.3461538461533 50.33076923077847 0  222.8400000000024 48.62000000000327 0  222.2800000000047 47.84000000000661 0  221.7200000000005 47.06000000000071 0  221.1600000000003 46.28000000000039 0  221.4500000000116 45.87500000000512 0  222.3 46.25 0  223.1499999999884 46.62499999999488 0  223.5600000000055 46.22000000000981 0  223.1199999999987 45.43999999999767 0  222.6800000000061 44.66000000001075 0  222.2399999999969 43.8799999999944 0  221.6400000000004 42.16000000000253 0  221.4800000000009 41.22000000000548 0  221.3200000000014 40.28000000000801 0  221.1600000000009 39.34000000000556 0  220.25 38.45 0  219.4749999999999 39.30000000000165 0  219.45 40.09999999999999 0  219.425 40.90000000000112 0  219.0166666666641 40.89999999999463 0  218.6333333333375 40.10000000000875 0  218.2500000000016 39.30000000000339 0  217.8666666666635 38.49999999999351 0  217.483333333337 37.70000000000762 0  216.1750000000165 36.78750000000201 0  215.2500000000275 36.67500000000335 0  214.3250000000385 36.56250000000469 0  213.4000000000277 36.45000000000337 0  212.4750000000059 36.33750000000072 0  211.5499999999838 36.22499999999803 0  210.6249999999835 36.11249999999799 0  209.6600000000001 35.14000000000318 0  209.6200000000001 34.28000000000268 0  209.5800000000001 33.42000000000284 0  209.5399999999998 32.55999999999681 0  208.6200000000117 31.34000000000476 0  207.7400000000138 30.98000000000564 0  206.8600000000162 30.62000000000662 0  205.9800000000174 30.26000000000711 0  204.2000000000054 30.02499999999925 0  203.2999999999946 30.15000000000076 0  202.3999999999945 30.27500000000076 0  201.2444444444438 31.32222222222468 0  200.9888888888895 32.24444444
[...]
<PointData  Vectors="f_12"> 
<DataArray  type="Float64"  Name="f_12"  NumberOfComponents="3" format="ascii">5.1703959399279797e-01 9.2677397995619137e-02 6.0702273737739665e-01  5.1696271107797764e-01 9.2603618602393356e-02 6.0662623031674612e-01  5.1666976627512096e-01 9.2334645998508685e-02 6.0511755134946488e-01  5.1626340104311763e-01 9.1982008078425173e-02 6.0302271959027631e-01  5.0859749298818624e-01 8.6586100025012852e-02 5.6231751233261651e-01  4.9547990369722722e-01 8.1952402742635960e-02 4.8710683144007971e-01  4.9266980684658690e-01 8.0489583494827391e-02 4.7101363576182054e-01  4.7222737540317411e-01 1.1679047772272520e-01 3.2046403573147747e-01  4.6257385150047087e-01 1.9721120564544325e-01 2.1178541204353724e-01  4.6506709272342328e-01 2.4701700100120536e-01 1.9629157520794621e-01  4.7857808660361023e-01 4.0729013983656726e-01 1.6938862104886351e-01  4.8278401245867170e-01 4.4378994203556960e-01 1.6750449777886073e-01  4.8715836898961085e-01 4.7502564197121638e-01 1.6915696486269516e-01  4.8839180375304242e-01 4.8365041173678502e-01 1.6960677613032832e-01  4.8649851193588528e-01 4.7170120408362914e-01 1.6812810343559303e-01  4.9072178087658175e-01 4.9828081501912952e-01 1.7157229133235807e-01  4.9412307480697937e-01 5.1819488780356238e-01 1.7472357370973837e-01  5.0719334487653100e-01 5.8764662729625405e-01 1.8698368695623796e-01  5.2127177233824951e-01 6.5002463066121297e-01 2.0062793809530621e-01  5.1780838862057543e-01 6.3583661765047650e-01 1.9722937855077352e-01  5.1937249565986987e-01 6.4237038021730708e-01 1.9874533646596931e-01  5.2016761931178590e-01 6.4563387802227146e-01 1.9950766168281497e-01  5.0108133515471265e-01 5.5546964779414110e-01 1.8200610961863475e-01  4.7626699898948538e-01 3.9678395062190597e-01 1.6360031935820654e-01  4.8197189491073084e-01 4.3865106295790374e-01 1.6672105084912958e-01  4.7508066605148846e-01 3.8808561865150776e-01 1.6276857729032418e-01  4.7467257396406076e-01 3.8473656809302781e-01 1.6270079320256317e-01  4.7349326496666905e-01 3.7569855230646360e-01 1.6203297536892572e-01  4.7349506650477990e-01 3.7571066778818230e-01 1.6203510009851782e-01  4.7387637671616328e-01 3.7839491747821186e-01 1.6240523425097109e-01  4.7182722011037276e-01 3.6150857856021429e-01 1.6185607277011144e-01  4.6976456634236857e-01 3.4322119092462100e-01 1.6188994318744998e-01  4.6843254026060943e-01 3.3131918080138512e-01 1.6186528637003320e-01  4.6813145684510798e-01 3.2858616004989266e-01 1.6187105877718916e-01  4.6811666874443153e-01 3.2844162629836388e-01 1.6187582608383477e-01  4.6942955143965270e-01 3.4009289156788691e-01 1.6195675794543854e-01  4.7123330235097549e-01 3.5561407653376420e-01 1.6223815437187256e-01  4.7825471987604162e-01 4.1305660683143253e-01 1.6369895907882662e-01  4.8002514035865368e-01 4.2638120611389951e-01 1.6445814629569946e-01  4.8068946744389685e-01 4.3146220240140798e-01 1.6465619892486247e-01  4.8335685577462895e-01 4.5070658305271288e-01 1.6598197411131974e-01  4.8341790184531486e-01 4.5107535986788033e-01 1.6605552780272198e-01  4.8186408577250095e-01 4.3992570941720799e-01 1.6528942788355941e-01  4.8257712529757701e-01 4.4496944376973757e-01 1.6569843054557340e-01  4.8537054774688337e-01 4.6430659142439090e-01 1.6736257569139362e-01  4.8909309855349836e-01 4.8868196807067488e-01 1.6991517168430800e-01  4.8865901103395581e-01 4.8598797172384745e-01 1.6951979173120987e-01  4.8820634050303713e-01 4.8280164956028504e-01 1.6938937111385374e-01  4.8488553330860118e-01 4.6018139134878994e-01 1.6758392821492973e-01  4.8070585658244802e-01 4.3111959702883890e-01 1.6499210959965066e-01  4.7811373098367543e-01 4.1216092573714924e-01 1.6359975479493952e-01  4.7589158420263994e-01 3.9537942924578867e-01 1.6249531050865196e-01  4.7546103944128676e-01 3.9195073736852776e-01 1.6234333626512265e-01  4.7545709677326470e-01 3.9180740009033016e-01 1.6238965638741457e-01  4.7589388776058511e-01 3.9507305409131371e-01 1.6262773161614683e-01  4.7698309211998935e-01 4.0326443921298982e-01 1.6317600940344015e-01  4.7926525323090435e-01 4.2013830560143944e-01 1.6438877635804980e-01  4.7951953447546414e-01 4.2153293267129049e-01 1.6480048947038820e-01  4.7896605154266919e-01 4.1731775852371944e-01 1.6461045444259623e-01  4.7491593745139765e-01 3.8286481518543303e-01 1.6518352722581589e-01  4.6328292771910329e-01 2.6583449960517697e-01 1.7351843567826225e-01  4.6141704945711759e-01 2.4382705707832786e-01 1.7602780040086374e-01  4.6121487089617647e-01 2.3268369249661366e-01 1.8173286452208759e-01  4.6072833027832555e-01 1.9348733248439326e-01 2.0287500825588101e-01  4.6135989787180132e-01 1.4388682957436916e-01 2.3641793321457091e-01  4.8050778801898475e-01 9.0875985343607635e-02 3.8809936880623536e-01  4.9711138635427388e-01 8.4330031018944179e-02 4.9507951803551953e-01  5.0228638151450411e-01 8.4288292316640867e-02 5.2662282271824512e-01  5.0510740152381461e-01 8.5174805450103003e-02 5.4277709476569014e-01  5.0952930938141294e-01 8.7167394531441664e-02 5.6741879099745729e-01  5.0891222662071456e-01 8.6729134398899302e-02 5.6414008352316047e-01  5.1376210878658990e-01 8.9922488570164549e-02 5.9004132139841214e-01  5.1641108915241374e-01 9.2106502244673691e-02 6.0378619021050450e-01  5.1668518081529613e-01 9.2344569673531662e-02 6.0519707479924179e-01  5.1429185859280135e-01 9.0380472267785728e-02 5.9278989226381618e-01  5.1672760298383169e-01 9.2388402224931415e-02 6.0541695548789365e-01  5.1693502056461171e-01 9.2578784853911647e-02 6.0648415908427400e-01  5.1699379844805571e-01 9.2633554395924356e-02 6.0678667510238016e-01  5.1703410317810450e-01 9.2672046720627482e-02 6.0699439464302463e-01  5.1703785620438103e-01 9.2675687640775078e-02 6.0701375918959033e-01  5.1703935502413778e-01 9.2677163532193796e-02 6.0702150312879288e-01  5.1703886208119287e-01 9.2676678906101442e-02 6.0701895664784533e-01  5.1703832849818721e-01 9.2676153024362606e-02 6.0701619956952302e-01  5.1703653557246143e-01 9.2674392245009021e-02 6.0700693813040696e-01  5.1703406703244303e-01 9.2671975611531940e-02 6.0699419008473976e-01  5.1703069425635328e-01 9.2668681633461966e-02 6.0697677546736206e-01  5.1702643829700790e-01 9.2664537800188962e-02 6.0695480563814175e-01  5.1702123377856168e-01 9.2659487731199558e-02 6.0692794583940568e-01  5.1701506504186923e-01 9.2653523482701700e-02 6.0689611761636386e-01  5.1700764543042987e-01 9.2646381092343563e-02 6.0685784694407552e-01  5.1699893985152678e-01 9.2638034928941057e-02 6.0681295490819920e-01  5.1698886653443510e-01 9.2628416756099258e-02 6.0676102215599748e-01  5.1697687298909922e-01 9.2617019811910895e-02 6.0669920685009648e-01  5.1694803416790380e-01 9.2589774041013179e-02 6.0655060771916058e-01  5.1693223192973203e-01 9.2574915585686229e-02 6.0646919394169285e-01  5.1691433675328247e-01 9.2558160813690685e-02 6.0637701073310923e-01  5.1689417490864464e-01 9.2539359620550821e-02 6.0627316215080074e-01  5.1687164709323918e-01 9.2518436845505814e-02 6.0615713544608918e-01  5.1684679817381285e-01 9.2495446437865059e-02 6.0602915942690727e-01  5.1681889908047618e-01 9.2469761178915352e-02 6.0588548565233435e-01  5.1678816891114943e-01 9.2441612238173182e-02 6.0572724113583465e-01  5.1675523079251873e-01 9.2411605031333041e-02 6.0555763167559640e-01  5.1672125864187934e-01 9.2380841829539651e-02 6.0538270197482558e-01  5.1668966733047328e-01 9.2352422782194979e-02 6.0522002982848966e-01  5.1663999673041139e-01 9.2308454654565983e-02 6.0496425149446420e-01  5.1656978030655054e-01 9.2246981628158128e-02 6.0460256180526117e-01  5.1645492639106994e-01 9.2147113834013250e-02 6.0401062331576594e-01  5.1598823824074647e-01 9.1747442843990626e-02 6.0160161480961083e-01  5.1570408543988744e-01 9.1508992989740523e-02 6.0013143207495923e-01  5.1538030093787157e-01 9.1242218608493741e-02 5.9845247000867485e-01  5.1500444144082225e-01 9.0938765720433343e-02 5.9649837305210784e-01  5.1456787328829334e-01 9.0594086064083618e-02 5.9422169439459149e-01  5.1406367204115933e-01 9.0205676746563809e-02 5.9158297157882633e-01  5.1348642310354586e-01 8.9772905961198982e-02 5.8854966851969781e-01  5.1283237270291204e-01 8.9297031399550642e-02 5.8509715061317980e-01  5.1210008876882029e-01 8.8782159984638065e-02 5.8121142916170732e-01  5.1128346601196206e-01 8.8230768720605882e-02 5.7685236777277238e-01  5.1040025681116064e-01 8.7659875803754381e-02 5.7210812351787477e-01  5.0946932414839563e-01 8.7089147701066363e-02 5.6707138641506627e-01  5.0761068987485014e-01 8.6066471941726105e-02 5.5688016409495200e-01  5.0632050680413121e-01 8.5437537012085896e-02 5.4970835513646410e-01  5.0481653814583693e-01 8.4766667741561566e-02 5.4126736734265590e-01  5.0314073709912910e-01 8.4096754966029821e-02 5.3176179593008222e-01  5.0133599021746555e-01 8.3462709300371155e-02 5.2141058717947220e-01  4.9945138278708895e-01 8.2891795413036942e-02 5.1048204320835178e-01  4.9750976785794482e-01 8.2394866751137788e-02 4.9910497613995225e-01  4.9400870092719479e-01 8.1554817290274126e-02 4.7844803191225055e-01  4.9307389423164527e-01 8.1292687882988546e-02 4.7293335334513492e-01  4.9257630769167593e-01 8.1076202282668805e-02 4.7004391145951752e-01  4.9235254399862816e-01 8.0901198318198100e-02 4.6879218613392820e-01  4.9234311607383335e-01 8.0748720914734326e-02 4.6883552482236879e-01  4.9245598254173140e-01 8.0620994185734873e-02 4.6961226805848122e-01  4.9259997987148724e-01 8.0526895654949499e-02 4.7055919472073643e-01  4.9253016047380616e-01 8.0557835281725595e-02 4.7010583338025236e-01  4.9201945133233432e-01 8.0820688084688411e-02 4.6677167214155196e-01  4.9107446401452221e-01 8.1367262106489507e-02 4.6054917154976005e-01  4.8969185755747036e-01 8.2314510793779980e-02 4.5132554350635595e-01  4.8788043023891520e-01 8.3841453973228786e-02 4.3902389177665024e-01  4.8568745756315312e-01 8.6161725680732507e-02 4.2379641107452687e-01  4.8316364760477226e-01 8.9572011326878948e-02 4.0578422641733253e-01  4.8031154375620000e-01 9.4543759524560511e-02 3.8474729893329407e-01  4.7697445828480767e-01 1.0218092311840174e-01 3.5909186884247912e-01  4.6783782806048685e-01 1.3644234070408265e-01 2.8115743912333785e-01  4.6542071879278407e-01 1.5204214449422754e-01 2.5669510093769560e-01  4.6389401286353421e-01 1.6654542397650199e-01 2.3849105887716912e-01  4.6302731866899510e-01 1.7964985395133454e-01 2.2522254932100436e-01  4.6262945032399910e-01 1.9056950794806957e-01 2.1615383973754421e-01  4.6269934189214407e-01 2.0142057950319783e-01 2.1001424919355094e-01  4.6306528486758186e-01 2.1048982789990972e-01 2.0675304600780126e-01  4.6376178242453281e-01 2.2433462551845335e-01 2.0250686896848960e-01  4.6710761828769776e-01 2.7837569390690980e-01 1.8866320354444091e-01  4.6884941461278307e-01 3.0220642299468525e-01 1.8361866034147262e-01  4.7052005970258148e-01 3.2315095516640829e-01 1.7973054656547430e-01  4.7214478178802699e-01 3.4212230384976322e-01 1.7664883954075736e-01  4.7372621605468068e-01 3.5947122783650232e-01 1.7421104389177794e-01  4.7527505921859886e-01 3.7554271389933619e-01 1.7228245122497338e-01  4.7683031671657444e-01 3.9087461029822684e-01 1.7073939881677588e-01  4.8012123788505773e-01 4.2119898129925287e-01 1.6846105559472488e-01  4.8116029454751169e-01 4.3025772841656162e-01 1.6796947207922525e-01  4.8193060881660771e-01 4.3678697886570683e-01 1.6769151172125754e-01  4.8248248219130596e-01 4.4135207885522693e-01 1.6754977635827231e-01  4.8302815041499092e-01 4.4568150329813605e-01 1.6751977412976535e-01  4.8341169775014003e-01 4.4858595296501119e-01 1.6758446519417930e-01  4.8386453749943770e-01 4.5194713594661018e-01 1.6769859780282220e-01  4.8435922940847137e-01 4.5555392168149700e-01 1.6785628729414548e-01  4.8486741488398727e-01 4.5919634798799414e-01 1.6804847368016604e-01  4.8537775985438891e-01 4.6279990805001209e-01 1.6826534416675137e-01  4.8587775620932738e-01 4.6628445486277459e-01 1.6849640691491946e-01  4.8635309508024827e-01 4.6955782300431986e-01 1.6873133095485979e-01  4.8679017393679869e-01 4.7253746710206640e-01 1.6895819555397645e-01  4.8753271471751297e-01 4.7753142773560409e-01 1.6936789384467410e-01  4.8791999191006152e-01 4.8010509485164982e-01 1.6959177312776436e-01  4.8828494124163330e-01 4.8251606977767053e-01 1.6980637124303752e-01  4.8861631349688822e-01 4.8469554323798247e-01 1.7000262311994355e-01  4.8890489300092393e-01 4.8658820292155625e-01 1.7017338787120709e-01  4.8914249526365583e-01 4.8814493299500006e-01 1.7031253126373924e-01  4.8932519995766410e-01 4.8934472786663247e-01 1.7041639924800381e-01  4.8944944855965133e-01 4.9016778341324535e-01 1.7048202517260913e-01  4.8951214682733740e-01 4.9059639538543093e-01 1.7050690700207979e-01  4.8951424766734869e-01 4.9063850745781701e-01 1.7049102614824879e-01  4.8945682809060698e-01 4.9030170776700072e-01 1.7043463778286422e-01  4.8934126130514083e-01 4.8959451795396908e-01 1.7033833315428801e-01  4.8917365693069298e-01 4.8855603654458085e-01 1.7020548057832532e-01  4.8895265718375458e-01 4.8717555155909792e-01 1.7003507117477237e-01  4.8869082743605557e-01 4.8553310107128134e-01 1.6983476679611592e-01  4.8809081159756579e-01 4.8175023445252013e-01 1.6937679624226878e-01  4.8778322900135324e-01 4.7980382097975233e-01 1.6914094070204935e-01  4.8747665604819895e-01 4.7786002243364056e-01 1.6890480470439148e-01  4.8718470979002304e-01 4.7600715451614334e-01 1.6867819139800552e-01  4.8691721635170576e-01 4.7430831363146264e-01 1.6846952466580856e-01  4.8669312190256370e-01 4.7288833568803207e-01 1.6829295733015298e-01  4.8653857715084159e-01 4.7191969426347563e-01 1.6816822462877359e-01  4.8668486956559248e-01 4.7295329320733981e-01 1.6825683721535920e-01  4.8698443819722170e-01 4.7491514409748287e-01 1.6847932650967617e-01  4.8737910037933052e-01 4.7746569250790422e-01 1.6878313963975350e-01  4.8785615327061638e-01 4.8051554093800475e-01 1.6915992433135979e-01  4.8840160480173261e-01 4.8396712679584952e-01 1.6960020477650020e-01  4.8900001921254455e-01 4.8771497544999010e-01 1.7009318153798200e-01  4.8962684782246213e-01 4.9159952286873887e-01 1.7062044400171289e-01  4.9023800258789396e-01 4.9534646212582928e-01 1.7114613369060336e-01  4.9115537620932437e-01 5.0087038751248592e-01 1.7196900651951541e-01  4.9185184321076358e-01 5.0499232277204842e-01 1.7261298660704474e-01  4.9278075965740059e-01 5.1043080139132269e-01 1.7347647237814817e-01  4.9574681429778217e-01 5.2745313183117581e-01 1.7622870509177327e-01  4.9721168214330930e-01 5.3566466546504121e-01 1.7758745620518254e-01  4.9865656741587405e-01 5.4361921774778654e-01 1.7893144851293194e-01  5.0012118790150772e-01 5.5153324386528857e-01 1.8030009884476833e-01  5.0163961472367125e-01 5.5957633122758377e-01 1.8172787696318451e-01  5.0322072970308740e-01 5.6777655411258554e-01 1.8321986261208967e-01  5.0494953306536183e-01 5.7654582299635160e-01 1.8485578855210530e-01  5.0954659796712720e-01 5.9897960050281385e-01 1.8922805418738942e-01  5.1133732389212350e-01 6.0737868789857563e-01 1.9093651794266842e-01  5.1288570637299480e-01 6.1447142938463173e-01 1.9241393644247423e-01  5.1426298076698740e-01 6.2064514950362970e-01 1.9373145944017106e-01  5.1549681586237350e-01 6.2606653404018087e-01 1.9491770819494453e-01  5.1660080191383628e-01 6.3082897644571556e-01 1.9598636392058133e-01  5.1758183904251542e-01 6.3498961702292900e-01 1.9694361253755246e-01  5.1844404951200707e-01 6.3858979560616647e-01 1.9779204451872640e-01  5.1919037439052662e-01 6.4166338365811515e-01 1.9853235430622806e-01  5.1982211018383739e-01 6.4423372476443364e-01 1.9916360497692209e-01  5.2033993002291834e-01 6.4631935346941050e-01 1.9968419329620821e-01  5.2074359237245360e-01 6.4793188266836066e-01 2.0009199586668483e-01  5.2103252644660103e-01 6.4907904703529939e-01 2.0038489957702210e-01  5.2120583087429107e-01 6.4976433737039596e-01 2.0056096059732897e-01  5.2120932696043032e-01 6.4977750944170309e-01 2.0056508240091406e-01  5.2104241575073862e-01 6.4911522018069567e-01 2.0039754889404088e-01  5.2076894956272446e-01 6.4802543903405707e-01 2.0012410799624927e-01  5.2039092720041780e-01 6.4650957238597773e-01 1.9974797603136904e-01  5.1991665653610664e-01 6.4459242135762418e-01 1.9927908441321060e-01  5.1888567944386355e-01 6.4035092996161447e-01 1.9827368481045965e-01  5.1944197064115150e-01 6.4265778862160172e-01 1.9881221235800689e-01  5.1976614839313251e-01 6.4399197214059922e-01 1.9912420488318480e-01  5.1997841664585998e-01 6.4486147023643225e-01 1.9932733531361435e-01  5.2010679723315600e-01 6.4538585900750289e-01 1.9944975871191375e-01  5.2009454922040588e-01 6.4533586807931587e-01 1.9943810307102117e-01  5.1992399050320837e-01 6.4463904715856313e-01 1.9927540519597772e-01  5.1965754377301365e-01 6.4354684818504859e-01 1.9902022900778227e-01  5.1631845743986104e-01 6.2948607982938076e-01 1.9579783397402231e-01  5.1501966463958271e-01 6.2383343549991710e-01 1.9456214266074570e-01  5.1370772497275841e-01 6.1799802594406272e-01 1.9332789420643606e-01  5.1233212745159085e-01 6.1174210243426275e-01 1.9205012075210834e-01  5.1086978683524487e-01 6.0493748995567276e-01 1.9071027187212838e-01  5.0930443554299154e-01 5.9747969960659741e-01 1.8929400118393738e-01  5.0761694637293875e-01 5.8924093345480544e-01 1.8778352254044478e-01  5.0577692958455100e-01 5.8002485781705182e-01 1.8614950186790452e-01  5.0370478464406898e-01 5.6936322419906549e-01 1.8431708943853722e-01  4.9849506818652783e-01 5.4136045649839626e-01 1.7974878565994637e-01  4.9648274604620418e-01 5.3006803123988044e-01 1.7800329080021376e-01  4.9466578798651323e-01 5.1961381929247152e-01 1.7644113774711159e-01  4.9297804427918829e-01 5.0966719315470022e-01 1.7501209063929390e-01  4.9137777677210687e-01 5.0002252899899235e-01 1.7368293119163611e-01  4.8985896804105566e-01 4.9066832086526962e-01 1.7245073776901881e-01  4.8841707427288777e-01 4.8160195531128358e-01 1.7131119242022644e-01  4.8705389710455044e-01 4.7285898729937414e-01 1.7026422264144456e-01  4.8577501016831848e-01 4.6449985499120922e-01 1.6931225819553539e-01  4.8459382492199665e-01 4.5663807044440330e-01 1.6846311019695159e-01  4.8352655415732948e-01 4.4941125438681523e-01 1.6772583792174642e-01  4.8260664292172234e-01 4.4308127216542925e-01 1.6711915503900190e-01  4.8130844399414369e-01 4.3392615847858779e-01 1.6634254997876990e-01  4.8039248497624365e-01 4.2731507943172242e-01 1.6584423644360255e-01  4.7931837877560779e-01 4.1946439430029947e-01 1.6527288309579943e-01  4.7805433802582592e-01 4.1011824025323496e-01 1.6459537910275648e-01  4.7542774025521806e-01 3.9057969295150785e-01 1.6305676794701676e-01  4.7518589695226332e-01 3.8882406481751408e-01 1.6287070051065186e-01  4.7510470714282732e-01 3.8825138066549431e-01 1.6279431502006614e-01  4.7510308624198333e-01 3.8824000413909410e-01 1.6279272029210748e-01  4.7514366327393032e-01 3.8851015651100740e-01 1.6284262334176236e-01  4.7514565676856613e-01 3.8846878502985238e-01 1.6288258555947097e-01  4.7500487358141935e-01 3.8733349782294696e-01 1.6284631359748480e-01  4.7424775853419504e-01 3.8144855650131348e-01 1.6248712479296903e-01  4.7391746798963486e-01 3.7891033056127549e-01 1.6230429472616617e-01  4.7368436722635809e-01 3.7713828131145832e-01 1.6216052643224416e-01  4.7354301908115409e-01 3.7607250629698052e-01 1.6206685342968916e-01  4.7349705469240738e-01 3.7572625810986438e-01 1.6203604468984575e-01  4.7352912092022864e-01 3.7596370349565172e-01 1.6206013817833428e-01  4.7361963793205097e-01 3.7663263130260233e-01 1.6212882774592710e-01  4.7374655207662947e-01 3.7754569162186979e-01 1.6224024916886270e-01  4.7336386290557481e-01 3.7415669737670720e-01 1.6229506460387530e-01  4.7291549481057304e-01 3.7048662217322847e-01 1.6216601588708812e-01  4.7252417763519167e-01 3.6727746199623484e-01 1.6204925977952525e-01  4.7219912716776496e-01 3.6459866074886194e-01 1.6195480601426704e-01  4.7195550010781856e-01 3.6257947649253564e-01 1.6188777179149666e-01  4.7172600966650557e-01 3.6064261694951849e-01 1.6184303717248813e-01  4.7156881611114393e-01 3.5928015510575423e-01 1.6183256196758750e-01  4.7137949005