<?xml version="1.0"?>
<VTKFile type="UnstructuredGrid"  version="0.1"  >
<UnstructuredGrid>
<Piece  NumberOfPoints="7288" NumberOfCells="14083">
<Points>
<DataArray  type="Float64"  NumberOfComponents="3"  format="ascii">239.8 188 0  250.2 180 0  258.2 172.4 0  257 169.4 0  259.9 157.4 0  258.7 150.3 0  261 143.5 0  251.7 144.4 0  250 138.7 0  247 138.1 0  245.2 130.8 0  247.3 126.4 0  242.7 118.6 0  231.2 107.7 0  226 102.4 0  226.5 93.90000000000001 0  224.5 91.19999999999999 0  224.5 84.09999999999999 0  234.5 73.80000000000001 0  228.4 68.90000000000001 0  230 70 0  233.4 68 0  222.7 61.5 0  220.6 45.5 0  223.4 49.40000000000001 0  224 47 0  221.8 43.09999999999999 0  221 38.40000000000001 0  219.5 38.5 0  219.4 41.69999999999999 0  217.1 36.90000000000001 0  209.7 36 0  209.5 31.69999999999999 0  205.1 29.90000000000001 0  201.5 30.40000000000001 0  199.2 38.69999999999999 0  201.8 41.40000000000001 0  194.8 53.80000000000001 0  196.1 57.69999999999999 0  193 59 0  191.4 66.09999999999999 0  193.5 66.5 0  194.1 64.40000000000001 0  195.6 64.69999999999999 0  195.4 72.40000000000001 0  199.5 77.30000000000001 0  197.7 86.90000000000001 0  200.6 87.5 0  201.5 91 0  198 94.80000000000001 0  198.6 100 0  197.3 105.4 0  198 109.5 0  197 112.7 0  198.3 116.1 0  201.3 122 0  207.2 121 0  208.1 126.7 0  205.6 127.9 0  209.1 134.9 0  210.9 144.4 0  210.1 147.9 0  213 148.4 0  215.4 149.3 0  215.1 152.8 0  219.9 159.7 0  220.3 163.2 0  218.7 164.9 0  219.9 166.7 0  221.9 169.7 0  220 170.3 0  224.9 174.7 0  229.8 177.4 0  229.7 181 0  228 172.9 0  239 178 0  240.4 180 0  239 181.5 0  241.2 185.9 0  242.95 187.99 0  240.5875 187.9975 0  241.375 187.995 0  242.1625 187.9925 0  243.6090909090879 187.2636363636397 0  244.2681818181765 186.5372727272785 0  244.9272727272692 185.810909090913 0  245.5863636363531 185.0845454545571 0  246.245454545445 184.3581818181923 0  246.9045454545351 183.6318181818295 0  247.5636363636303 182.9054545454612 0  248.2227272727197 182.1790909090992 0  248.8818181818179 181.4527272727275 0  249.5409090909066 180.7263636363664 0  250.8666666666961 179.3666666666387 0  251.5333333334033 178.7333333332668 0  252.2000000000994 178.0999999999055 0  252.8666666668011 177.466666666539 0  253.5333333335083 176.8333333331671 0  254.2000000002044 176.1999999998058 0  254.8666666669005 175.5666666664445 0  255.5333333336077 174.9333333330727 0  256.2000000002685 174.2999999997449 0  256.8666666668457 173.6666666664966 0  257.5333333334283 173.033333333243 0  257.9000000000077 171.6500000000191 0  257.6000000000015 170.9000000000038 0  257.2999999999954 170.1499999999885 0  257.2230769230778 168.4769230769195 0  257.4461538461543 167.5538461538442 0  257.6692307692309 166.6307692307688 0  257.8923076923074 165.7076923076935 0  258.115384615384 164.7846153846181 0  258.3384615384605 163.8615384615427 0  258.5615384615395 162.9384615384572 0  258.784615384616 162.0153846153819 0  259.0076923076926 161.0923076923065 0  259.2307692307691 160.1692307692311 0  259.4538461538457 159.2461538461558 0  259.6769230769222 158.3230769230804 0  259.750000000001 156.512500000006 0  259.6000000000014 155.6250000000082 0  259.4500000000029 154.7375000000176 0  259.3000000000018 153.8500000000108 0  259.1500000000007 152.962500000004 0  259.0000000000004 152.0750000000026 0  258.849999999999 151.187499999994 0  258.9875000000052 149.4499999999846 0  259.275000000002 148.5999999999941 0  259.5624999999954 147.7500000000135 0  259.849999999995 146.900000000015 0  260.1374999999945 146.0500000000164 0  260.4249999999913 145.2000000000259 0  260.7124999999948 144.3500000000154 0  260.0700000000398 143.5899999999961 0  259.1400000000573 143.6799999999944 0  258.2100000000351 143.7699999999966 0  257.2800000000262 143.8599999999975 0  256.350000000011 143.9499999999989 0  255.4199999999881 144.0400000000011 0  254.4899999999726 144.1300000000026 0  253.5599999999944 144.2200000000005 0  252.6300000000009 144.3099999999999 0  251.4166666666658 143.4499999999971 0  251.1333333333388 142.5000000000182 0  250.8500000000015 141.5500000000051 0  250.5666666666612 140.5999999999818 0  250.2833333333342 139.6500000000029 0  249.2500000000005 138.5500000000001 0  248.5000000000011 138.4000000000002 0  247.7499999999995 138.2499999999999 0  246.7750000000005 137.1875000000023 0  246.5500000000021 136.2750000000085 0  246.3250000000036 135.3625000000147 0  246.1000000000042 134.450000000017 0  245.8750000000022 133.5375000000088 0  245.650000000003 132.6250000000124 0  245.4250000000046 131.7125000000187 0  245.619999999996 129.9200000000084 0  246.0399999999992 129.0400000000017 0  246.4599999999987 128.1600000000028 0  246.8800000000001 127.2799999999997 0  246.8399999999988 125.6199999999979 0  246.3799999999984 124.8399999999973 0  245.9199999999991 124.0599999999985 0  245.4600000000036 123.2800000000062 0  245.0000000000049 122.5000000000082 0  244.5400000000036 121.7200000000062 0  244.0800000000033 120.9400000000056 0  243.6200000000016 120.1600000000027 0  243.1600000000012 119.3800000000021 0  241.9812499999996 117.9187499999997 0  241.2625000000007 117.2375000000007 0  240.5437500000017 116.5562500000017 0  239.8250000000041 115.875000000004 0  239.1062500000066 115.1937500000063 0  238.3875000000076 114.5125000000072 0  237.6687500000087 113.8312500000082 0  236.9500000000083 113.1500000000079 0  236.231250000008 112.4687500000076 0  235.512500000009 111.7875000000085 0  234.7937500000045 111.1062500000043 0  234.0750000000042 110.4250000000039 0  233.3562500000066 109.7437500000062 0  232.6375000000021 109.062500000002 0  231.9187500000031 108.381250000003 0  230.5500000000004 107.0375000000004 0  229.9000000000021 106.3750000000021 0  229.2500000000038 105.7125000000039 0  228.6000000000041 105.0500000000042 0  227.9500000000018 104.3875000000018 0  227.2999999999952 103.7249999999951 0  226.6500000000024 103.0625000000024 0  226.0555555555555 101.4555555555556 0  226.1111111111111 100.5111111111111 0  226.1666666666667 99.56666666666668 0  226.2222222222222 98.62222222222223 0  226.2777777777778 97.67777777777778 0  226.3333333333333 96.73333333333335 0  226.3888888888889 95.78888888888889 0  226.4444444444445 94.84444444444446 0  226 93.22499999999999 0  225.5000000000026 92.55000000000358 0  225.0000000000026 91.87500000000358 0  224.5 90.31250000000068 0  224.5 89.4250000000097 0  224.5 88.53750000001317 0  224.5 87.65000000001388 0  224.5 86.76250000001457 0  224.5 85.87500000001248 0  224.5 84.9874999999993 0  225.1666666666659 83.41333333333409 0  225.8333333333319 82.72666666666818 0  226.4999999999978 82.04000000000228 0  227.1666666666649 81.35333333333514 0  227.8333333333301 80.66666666667 0  228.4999999999942 79.980000000006 0  229.1666666666601 79.2933333333401 0  229.8333333333316 78.60666666666847 0  230.4999999999975 77.92000000000257 0  231.1666666666644 77.23333333333572 0  231.8333333333295 76.54666666667057 0  232.4999999999972 75.86000000000287 0  233.1666666666681 75.17333333333181 0  233.8333333333368 74.48666666666306 0  233.7499999999995 73.16666666666629 0  233.0000000000018 72.53333333333488 0  232.2500000000014 71.90000000000116 0  231.5000000000009 71.26666666666743 0  230.7500000000005 70.63333333333372 0  229.233333333333 68.75000000000006 0  230.0666666666665 68.60000000000004 0  230.8999999999995 68.45000000000009 0  231.7333333333325 68.30000000000015 0  232.566666666667 68.14999999999995 0  232.5499999999897 68.50000000000607 0  231.7 69 0  230.8500000000103 69.49999999999393 0  227.8300000000008 68.16000000000106 0  227.2600000000064 67.42000000000837 0  226.6900000000077 66.68000000001001 0  226.1200000000024 65.94000000000314 0  225.5500000000108 65.20000000001409 0  224.9800000000098 64.46000000001268 0  224.4100000000007 63.72000000000098 0  223.8399999999971 62.97999999999621 0  223.2699999999993 62.23999999999915 0  222.753846153846 60.56923076923239 0  222.8076923076921 59.63846153846478 0  222.8615384615381 58.70769230769827 0  222.9153846153842 57.77692307693071 0  222.9692307692302 56.84615384616315 0  223.0230769230761 55.91538461539836 0  223.0769230769224 54.98461538462665 0  223.1307692307688 54.05384615385345 0  223.184615384615 53.12307692308312 0  223.2384615384611 52.19230769231556 0  223.2923076923071 51.26153846154906 0  223.3461538461533 50.33076923077847 0  222.8400000000024 48.62000000000327 0  222.2800000000047 47.84000000000661 0  221.7200000000005 47.06000000000071 0  221.1600000000003 46.28000000000039 0  221.4500000000116 45.87500000000512 0  222.3 46.25 0  223.1499999999884 46.62499999999488 0  223.5600000000055 46.22000000000981 0  223.1199999999987 45.43999999999767 0  222.6800000000061 44.66000000001075 0  222.2399999999969 43.8799999999944 0  221.6400000000004 42.16000000000253 0  221.4800000000009 41.22000000000548 0  221.3200000000014 40.28000000000801 0  221.1600000000009 39.34000000000556 0  220.25 38.45 0  219.4749999999999 39.30000000000165 0  219.45 40.09999999999999 0  219.425 40.90000000000112 0  219.0166666666641 40.89999999999463 0  218.6333333333375 40.10000000000875 0  218.2500000000016 39.30000000000339 0  217.8666666666635 38.49999999999351 0  217.483333333337 37.70000000000762 0  216.1750000000165 36.78750000000201 0  215.2500000000275 36.67500000000335 0  214.3250000000385 36.56250000000469 0  213.4000000000277 36.45000000000337 0  212.4750000000059 36.33750000000072 0  211.5499999999838 36.22499999999803 0  210.6249999999835 36.11249999999799 0  209.6600000000001 35.14000000000318 0  209.6200000000001 34.28000000000268 0  209.5800000000001 33.42000000000284 0  209.5399999999998 32.55999999999681 0  208.6200000000117 31.34000000000476 0  207.7400000000138 30.98000000000564 0  206.8600000000162 30.62000000000662 0  205.9800000000174 30.26000000000711 0  204.2000000000054 30.02499999999925 0  203.2999999999946 30.15000000000076 0  202.3999999999945 30.27500000000076 0  201.2444444444438 31.32222222222468 0  200.9888888888895 32.24444444
[...]
<PointData  Vectors="f_12"> 
<DataArray  type="Float64"  Name="f_12"  NumberOfComponents="3" format="ascii">4.9716369572896185e-01 5.3792927476381869e-01 1.7576609117661882e-01  4.9840879959380163e-01 5.4490128503582214e-01 1.7683820594944924e-01  4.9986301288845025e-01 5.5289395428832089e-01 1.7810741453554438e-01  5.0047687704591604e-01 5.5619408774887769e-01 1.7866613533552911e-01  5.0438427217170867e-01 5.7662453725554252e-01 1.8223841528837009e-01  5.0662395865904986e-01 5.8780379218377221e-01 1.8435507896588185e-01  5.0734180852672117e-01 5.9134931283997960e-01 1.8501151195575222e-01  5.0994861492579402e-01 6.0348797159983369e-01 1.8774614069449369e-01  5.1359026293623278e-01 6.1988857146045484e-01 1.9148939255537142e-01  5.1530066447270928e-01 6.2720959601873016e-01 1.9330724810077868e-01  5.2090784300266979e-01 6.5002581871384757e-01 1.9930473405101412e-01  5.2254819255197849e-01 6.5633247854866872e-01 2.0107975820088353e-01  5.2443810824640480e-01 6.6328804480820336e-01 2.0321932920126867e-01  5.2781488112722641e-01 6.7508373753421469e-01 2.0716175750063748e-01  5.2915994614934070e-01 6.7958108837892628e-01 2.0875710003230205e-01  5.2984224425366400e-01 6.8182712208614360e-01 2.0956635648212910e-01  5.2990052850161140e-01 6.8202043069538343e-01 2.0963378244770695e-01  5.2979893297798808e-01 6.8170240254883507e-01 2.0950328277581845e-01  5.2955074614525710e-01 6.8090377309822203e-01 2.0919752820814824e-01  5.2940553002138524e-01 6.8043186673686407e-01 2.0902096639547005e-01  5.2946127536076704e-01 6.8061327580595299e-01 2.0908865651194830e-01  5.2946039285203539e-01 6.8061065338566262e-01 2.0908737725694601e-01  5.2869593339799881e-01 6.7810696121090885e-01 2.0816043172251342e-01  5.2755685779557071e-01 6.7431359539230185e-01 2.0678350021806557e-01  5.2781574949808840e-01 6.7518325571180426e-01 2.0709537255466312e-01  5.2750392435065274e-01 6.7413559254415789e-01 2.0671959397361950e-01  5.2748280124570024e-01 6.7406428142383701e-01 2.0669426595105203e-01  5.2743056041089620e-01 6.7388821685751688e-01 2.0663127867570502e-01  5.2743059626319733e-01 6.7388833656198632e-01 2.0663132306840132e-01  5.2744149496911386e-01 6.7392490377082281e-01 2.0664462236547179e-01  5.2731942532621889e-01 6.7351234435334084e-01 2.0649806377380248e-01  5.2715782361183283e-01 6.7296435466393589e-01 2.0630451901669764e-01  5.2704805757764650e-01 6.7259156635538786e-01 2.0617290509948011e-01  5.2702164530059892e-01 6.7250176832039932e-01 2.0614122156799441e-01  5.2701969679190408e-01 6.7249514369763563e-01 2.0613888320743101e-01  5.2712913535580863e-01 6.7286691155582434e-01 2.0627024051948126e-01  5.2728184529385591e-01 6.7338433243718054e-01 2.0645363394148150e-01  5.2802099889145870e-01 6.7587107941288338e-01 2.0734190425336710e-01  5.2825037832749189e-01 6.7663534635363154e-01 2.0761868209106776e-01  5.2838004307728481e-01 6.7706656202872217e-01 2.0777496829322359e-01  5.2877812420470627e-01 6.7838233877756426e-01 2.0825647510510656e-01  5.2876850557515942e-01 6.7835048576612456e-01 2.0824496885765342e-01  5.2852697838979423e-01 6.7755307862439962e-01 2.0795278244606874e-01  5.2860823945612889e-01 6.7782145423830042e-01 2.0805120654475073e-01  5.2895092123709964e-01 6.7894918067279808e-01 2.0846687943410136e-01  5.2937807020886996e-01 6.8034241071823209e-01 2.0898781065675703e-01  5.2982411570535326e-01 6.8178605970611761e-01 2.0953253032492289e-01  5.2987426107267255e-01 6.8194648816090997e-01 2.0959459779414349e-01  5.3001556997176957e-01 6.8239704044911453e-01 2.0977010097892607e-01  5.3008011255125442e-01 6.8260041510545855e-01 2.0985165657669044e-01  5.3002535942329698e-01 6.8241993198785356e-01 2.0978780564398053e-01  5.2988055601465689e-01 6.8194751135231801e-01 2.0961520546075446e-01  5.2970195821726029e-01 6.8136515635975148e-01 2.0940112684564188e-01  5.2956228910393355e-01 6.8090893784634565e-01 2.0923353494847924e-01  5.2939994055526063e-01 6.8037667241616162e-01 2.0903930463658155e-01  5.2906392328473539e-01 6.7926840856965442e-01 2.0863961318831284e-01  5.2812619191514465e-01 6.7612274444794773e-01 2.0753916768743477e-01  5.2588798042609464e-01 6.6843752312713356e-01 2.0490635124528234e-01  5.2547699538025694e-01 6.6700181623538668e-01 2.0442054430437290e-01  5.2368010229100836e-01 6.6051573587948298e-01 2.0236805460906779e-01  5.2001203582056532e-01 6.4663928983028196e-01 1.9824248861014443e-01  5.1942238994652723e-01 6.4433182820300794e-01 1.9758560838259284e-01  5.1896831285066924e-01 6.4250050306145878e-01 1.9710978369791124e-01  5.1743042469505685e-01 6.3622201333260098e-01 1.9548290027526052e-01  5.1543301089727045e-01 6.2789732032518852e-01 1.9336194775170917e-01  5.1064136494622414e-01 6.0667667292720051e-01 1.8845774866928980e-01  5.0805008905963966e-01 5.9460783182220611e-01 1.8581992161945585e-01  5.0731838471142321e-01 5.9113698157066497e-01 1.8506966775526662e-01  5.0685611953399057e-01 5.8890553371759014e-01 1.8460727459478649e-01  5.0597529590488588e-01 5.8459842803408968e-01 1.8374369074834893e-01  5.0621004610210441e-01 5.8576692871552449e-01 1.8396308512189669e-01  5.0461073300537851e-01 5.7778444418872765e-01 1.8244387396016165e-01  5.0165186383518523e-01 5.6248381081901522e-01 1.7970952472695681e-01  5.0130592232025950e-01 5.6067350953768114e-01 1.7937863739529644e-01  5.0377671825189652e-01 5.7349835778484159e-01 1.8169120785176457e-01  4.9980893167939799e-01 5.5254477411471170e-01 1.7809819348617720e-01  4.9839051684608093e-01 5.4475983404383554e-01 1.7685027108115720e-01  4.9788583006871862e-01 5.4196494059298905e-01 1.7640396006149997e-01  4.9729088547900202e-01 5.3864356887445819e-01 1.7587741953840808e-01  4.9721421801557214e-01 5.3821373862597177e-01 1.7580990733546406e-01  4.9717015779985724e-01 5.3796563089890381e-01 1.7577171990021995e-01  4.9718413523418320e-01 5.3804430809275461e-01 1.7578386480432243e-01  4.9720012521189261e-01 5.3813436537437742e-01 1.7579771418721832e-01  4.9724982652418448e-01 5.3841409641720295e-01 1.7584079474649086e-01  4.9731361270041302e-01 5.3877286273188729e-01 1.7589608495734274e-01  4.9739621688962476e-01 5.3923725073004736e-01 1.7596757422439868e-01  4.9749329278896581e-01 5.3978264691198852e-01 1.7605143010578422e-01  4.9760243144100380e-01 5.4039532565313209e-01 1.7614553245909675e-01  4.9772041411943002e-01 5.4105705792801995e-01 1.7624704030665594e-01  4.9784711749160476e-01 5.4176684761292038e-01 1.7635592973742378e-01  4.9797998452785480e-01 5.4251020087565860e-01 1.7647000269155991e-01  4.9811691301273309e-01 5.4327516043187096e-01 1.7658747947954062e-01  4.9825964051154692e-01 5.4407107997842674e-01 1.7671002002257605e-01  4.9854872361078645e-01 5.4567866732318793e-01 1.7695855705024208e-01  4.9868484101374616e-01 5.4643341139860602e-01 1.7707582232977448e-01  4.9882134705248815e-01 5.4718866178172543e-01 1.7719373349255646e-01  4.9895825407652833e-01 5.4794446254828544e-01 1.7731232496685895e-01  4.9909463680424648e-01 5.4869567932328933e-01 1.7743080676584272e-01  4.9922942511105800e-01 5.4943645773938465e-01 1.7754825752669282e-01  4.9936268113200777e-01 5.5016708969218542e-01 1.7766480518513464e-01  4.9949207077365293e-01 5.5087486563495747e-01 1.7777841697787358e-01  4.9961412605019562e-01 5.5154096884057169e-01 1.7788604243677197e-01  4.9972438968590094e-01 5.5214135303944301e-01 1.7798372988402353e-01  4.9981395084342228e-01 5.5262794607144694e-01 1.7806348159956573e-01  4.9991575916861164e-01 5.5317854454336413e-01 1.7815537205129925e-01  5.0003166909080043e-01 5.5380302278883298e-01 1.7826092367172949e-01  5.0020722211317514e-01 5.5474712927305070e-01 1.7842080610398495e-01  5.0082874157963020e-01 5.5807677858592630e-01 1.7898577303313026e-01  5.0114640521807696e-01 5.5977020114607978e-01 1.7927408475796933e-01  5.0145912275892091e-01 5.6143076700784034e-01 1.7955785970013718e-01  5.0177202054593983e-01 5.6308565631238783e-01 1.7984195232870659e-01  5.0208561031982701e-01 5.6473739333410178e-01 1.8012699269273405e-01  5.0239907360157521e-01 5.6638153339034991e-01 1.8041236890730800e-01  5.0271089951768055e-01 5.6801009108744116e-01 1.8069680839625119e-01  5.0301946187325219e-01 5.6961469725177749e-01 1.8097891449137707e-01  5.0332210328418314e-01 5.7118163162030844e-01 1.8125633787667644e-01  5.0361747656212064e-01 5.7270418640471688e-01 1.8152798316521193e-01  5.0390025703580910e-01 5.7415556998583894e-01 1.8178894744975299e-01  5.0416428960026483e-01 5.7550493934051583e-01 1.8203361403569590e-01  5.0459855371524742e-01 5.7770977815354174e-01 1.8243932316360448e-01  5.0485445150551755e-01 5.7900071924320595e-01 1.8268021399174128e-01  5.0513125481569821e-01 5.8039159129692752e-01 1.8294153415427106e-01  5.0541924508366609e-01 5.8183280039178265e-01 1.8321407488763469e-01  5.0571323765082266e-01 5.8329812454513841e-01 1.8349269025971027e-01  5.0600942112371938e-01 5.8476869572119705e-01 1.8377348041577887e-01  5.0630853048961055e-01 5.8624834958246863e-01 1.8405689219199448e-01  5.0687880570270039e-01 5.8905971387687506e-01 1.8459351151589687e-01  5.0705670122449076e-01 5.8993533184710345e-01 1.8475883003456048e-01  5.0717758196640850e-01 5.9053111571634853e-01 1.8486952300500009e-01  5.0725975518406197e-01 5.9093704122762958e-01 1.8494355495845505e-01  5.0730907377433920e-01 5.9118211958415789e-01 1.8498663250850969e-01  5.0733375822645321e-01 5.9130631574637005e-01 1.8500690783877402e-01  5.0734161744641448e-01 5.9134736336285121e-01 1.8501214727162310e-01  5.0734793697695235e-01 5.9137760744041734e-01 1.8501856567313454e-01  5.0737541951368970e-01 5.9150592941195157e-01 1.8504902046030292e-01  5.0743475589420484e-01 5.9178443428101235e-01 1.8511348365590388e-01  5.0753305679407257e-01 5.9224655720724451e-01 1.8521930773725329e-01  5.0768082478751053e-01 5.9294148415217329e-01 1.8537722730733350e-01  5.0788764995256896e-01 5.9391330094819439e-01 1.8559698151416570e-01  5.0816536177655913e-01 5.9521529928319405e-01 1.8589054793722262e-01  5.0853555751171875e-01 5.9694497156643922e-01 1.8627955313095662e-01  5.0905378608521112e-01 5.9935448383544365e-01 1.8682007886893051e-01  5.1100719636798264e-01 6.0833561637691103e-01 1.8883473762938660e-01  5.1175374264524698e-01 6.1172067038890576e-01 1.8959980919584218e-01  5.1238864877283552e-01 6.1457177633004378e-01 1.9024997388553216e-01  5.1292171599794478e-01 6.1694447189059842e-01 1.9079721545762293e-01  5.1334309971470982e-01 6.1880549776483729e-01 1.9123203471077774e-01  5.1374147353159716e-01 6.2054380080973892e-01 1.9164934769203348e-01  5.1406143743877297e-01 6.2192371803756064e-01 1.9198895082361739e-01  5.1453816261278562e-01 6.2396633545816982e-01 1.9249595546728379e-01  5.1632714932303048e-01 6.3153203621339637e-01 1.9440042331745411e-01  5.1710176753487880e-01 6.3475485246454044e-01 1.9522602332110256e-01  5.1779112602805899e-01 6.3759078049097140e-01 1.9596128293087423e-01  5.1843342028047845e-01 6.4020520186323260e-01 1.9664729226580460e-01  5.1904505152526792e-01 6.4266933960316552e-01 1.9730189029959361e-01  5.1963928004064130e-01 6.4503980972261254e-01 1.9793932190011343e-01  5.2023582271244062e-01 6.4739654625542098e-01 1.9858067123846179e-01  5.2150221815089781e-01 6.5233114101890144e-01 1.9994622797250550e-01  5.2190594004752566e-01 6.5388511095373081e-01 2.0038248603563200e-01  5.2220842028488790e-01 6.5504197186494828e-01 2.0070997924365216e-01  5.2242734413331204e-01 6.5587484315214262e-01 2.0094778657837337e-01  5.2264818665132706e-01 6.5670821688179615e-01 2.0119046307261448e-01  5.2280675405058041e-01 6.5730145866886547e-01 2.0136723672195073e-01  5.2299508557106889e-01 6.5800303553655193e-01 2.0157833194896865e-01  5.2320199348361518e-01 6.5877047185788407e-01 2.0181128568037804e-01  5.2341646404874520e-01 6.5956239082055024e-01 2.0205377360398208e-01  5.2363431485234890e-01 6.6036323259445950e-01 2.0230094015274666e-01  5.2385125512433639e-01 6.6115727462417173e-01 2.0254782102208560e-01  5.2406243391798280e-01 6.6192692896296512e-01 2.0278885954398157e-01  5.2426261181481038e-01 6.6265351741981326e-01 2.0301795321303934e-01  5.2462876740298325e-01 6.6397433425516772e-01 2.0343883994579834e-01  5.2484120112039157e-01 6.6473580351692307e-01 2.0368406614480478e-01  5.2506067304641246e-01 6.6551926909528114e-01 2.0393801439264808e-01  5.2528427881905682e-01 6.6631411391899475e-01 2.0419727838374926e-01  5.2550927408766901e-01 6.6711059438304587e-01 2.0445863794226529e-01  5.2573373646635124e-01 6.6790187464584283e-01 2.0471984491078732e-01  5.2595699234658000e-01 6.6868564410480236e-01 2.0498007746030528e-01  5.2617806776775278e-01 6.6945857839352785e-01 2.0523818071870017e-01  5.2639588467057530e-01 6.7021704763287693e-01 2.0549287922598550e-01  5.2661043959013920e-01 6.7096116158435692e-01 2.0574414634932317e-01  5.2682130138209005e-01 6.7168960050717463e-01 2.0599145557132267e-01  5.2702782535944237e-01 6.7240031344528695e-01 2.0623403534591764e-01  5.2723073517315711e-01 6.7309593069381601e-01 2.0647271297902572e-01  5.2742847999320697e-01 6.7377124766077578e-01 2.0670566037055033e-01  5.2762288820301217e-01 6.7443275581282269e-01 2.0693498695168416e-01  5.2799062102388583e-01 6.7567758404100364e-01 2.0736958485725943e-01  5.2815959393189948e-01 6.7624673411746716e-01 2.0756963453427379e-01  5.2832376792246716e-01 6.7679806381345309e-01 2.0776419720974232e-01  5.2848421923863809e-01 6.7733523005952390e-01 2.0795452894478977e-01  5.2864186545160519e-01 6.7786150124269529e-01 2.0814166540721607e-01  5.2879965545590368e-01 6.7838678508029426e-01 2.0832906726303044e-01  5.2896422853302905e-01 6.7893311104167020e-01 2.0852457789414167e-01  5.2933778332595660e-01 6.8016839904362647e-01 2.0896837144499056e-01  5.2945929424930516e-01 6.8056885954534319e-01 2.0911267045763202e-01  5.2955493260666286e-01 6.8088354183114097e-01 2.0922618186382863e-01  5.2963303356059177e-01 6.8114021323406959e-01 2.0931882131874302e-01  5.2969740377486307e-01 6.8135158891549796e-01 2.0939512061078597e-01  5.2974984210229714e-01 6.8152370789932870e-01 2.0945722115339294e-01  5.2979148627754069e-01 6.8166039246488508e-01 2.0950647800020841e-01  5.2982283534495200e-01 6.8176333005524470e-01 2.0954349405474448e-01  5.2985498693523103e-01 6.8186910204932227e-01 2.0958129389042110e-01  5.2987090846999552e-01 6.8192168959141986e-01 2.0959986221620369e-01  5.2988623704267102e-01 6.8197255651444699e-01 2.0961757448208856e-01  5.2990882871808764e-01 6.8204903450432774e-01 2.0964265560357431e-01  5.2990950143424609e-01 6.8205264413114819e-01 2.0964250452043995e-01  5.2990447280073749e-01 6.8203768480368010e-01 2.0963553057043560e-01  5.2989446465301593e-01 6.8200655020555878e-01 2.0962256496083129e-01  5.2987961880445267e-01 6.8195972126996640e-01 2.0960375824687077e-01  5.2985997273220575e-01 6.8189733871551372e-01 2.0957913359730396e-01  5.2983483060254755e-01 6.8181717815812604e-01 2.0954781712235107e-01  5.2976060149653603e-01 6.8157958962896725e-01 2.0945585492337029e-01  5.2973074401078057e-01 6.8148377461092335e-01 2.0941897714187363e-01  5.2970420573961574e-01 6.8139850282796621e-01 2.0938624179740176e-01  5.2968000351063060e-01 6.8132065486374660e-01 2.0935641895787130e-01  5.2965781910851839e-01 6.8124923319251030e-01 2.0932910606051602e-01  5.2963754874618041e-01 6.8118392313509224e-01 2.0930416786739425e-01  5.2961923331295768e-01 6.8112487220561324e-01 2.0928164863649243e-01  5.2960297000206469e-01 6.8107240759394527e-01 2.0926166257972101e-01  5.2958878974416368e-01 6.8102664080607267e-01 2.0924424355745222e-01  5.2957681091211284e-01 6.8098796420681051e-01 2.0922953312636067e-01  5.2956704136169985e-01 6.8095641121262507e-01 2.0921753836782520e-01  5.2955958324757424e-01 6.8093231880664928e-01 2.0920838215614324e-01  5.2955443269976210e-01 6.8091567926024976e-01 2.0920205841260289e-01  5.2955144954581446e-01 6.8090604155482848e-01 2.0919839528362127e-01  5.2954863476783731e-01 6.8089692056337248e-01 2.0919496066955170e-01  5.2954198472932446e-01 6.8087534054979582e-01 2.0918687019604973e-01  5.2953044932761451e-01 6.8083790239873543e-01 2.0917283511464754e-01  5.2951393128165081e-01 6.8078428025444948e-01 2.0915273800517256e-01  5.2949171607770307e-01 6.8071214297585270e-01 2.0912570782428541e-01  5.2943918947971957e-01 6.8054146893460699e-01 2.0906180634082716e-01  5.2945211381940527e-01 6.8058357983512752e-01 2.0907745373945813e-01  5.2945651239876301e-01 6.8059794795125639e-01 2.0908274391967499e-01  5.2945867784362977e-01 6.8060503525984772e-01 2.0908533323438797e-01  5.2945984523539646e-01 6.8060885945349836e-01 2.0908672481040691e-01  5.2945973532412172e-01 6.8060849937971413e-01 2.0908659386497100e-01  5.2945825795916757e-01 6.8060365736198514e-01 2.0908483484233958e-01  5.2945656467933422e-01 6.8059808543689726e-01 2.0908283561535615e-01  5.2934873199815258e-01 6.8024687269953021e-01 2.0895200477746423e-01  5.2929589319795667e-01 6.8007462864173007e-01 2.0888785437625065e-01  5.2924103302516556e-01 6.7989561745747185e-01 2.0882126520128758e-01  5.2918283448184611e-01 6.7970550841231603e-01 2.0875064562026380e-01  5.2912057913136368e-01 6.7950191146531802e-01 2.0867512954327300e-01  5.2905379451079437e-01 6.7928323437579585e-01 2.0859414590673120e-01  5.2898158771658232e-01 6.7904649323294919e-01 2.0850661177271299e-01  5.2890232501837142e-01 6.7878625409924809e-01 2.0841054323560318e-01  5.2881222136741757e-01 6.7848997354415375e-01 2.0830134728005223e-01  5.2857722679627606e-01 6.7771531010631791e-01 2.0801661125386359e-01  5.2848360385098814e-01 6.7740589421203068e-01 2.0790319148045375e-01  5.2839891428841912e-01 6.7712556983724437e-01 2.0780060399191322e-01  5.2832027399348225e-01 6.7686488255838773e-01 2.0770536250542787e-01  5.2824606568039878e-01 6.7661854566160884e-01 2.0761551230820871e-01  5.2817590804040526e-01 6.7638534344689993e-01 2.0753059622473691e-01  5.2810958002664099e-01 6.7616458925934875e-01 2.0745034736653467e-01  5.2804710420083967e-01 6.7595640286345537e-01 2.0737479194425390e-01  5.2798866836283675e-01 6.7576145447377389e-01 2.0730415484590639e-01  5.2793480954136240e-01 6.7558157970365817e-01 2.0723908210958802e-01  5.2788625046561866e-01 6.7541924090297001e-01 2.0718044294976878e-01  5.2784450998403343e-01 6.7527956955040669e-01 2.0713006554908361e-01  5.2778605420200897e-01 6.7508370346412205e-01 2.0705958436112160e-01  5.2774499018652565e-01 6.7494592938917963e-01 2.0701011598707386e-01  5.2769654518383002e-01 6.7478325789735072e-01 2.0695176843753538e-01  5.2763901129380708e-01 6.7458990288986898e-01 2.0688247301537471e-01  5.2751885608190729e-01 6.7418578149013586e-01 2.0673765660838306e-01  5.2750827556845592e-01 6.7415020901101741e-01 2.0672487011962962e-01  5.2750489029890357e-01 6.7413883578478817e-01 2.0672076744780060e-01  5.2750482345667049e-01 6.7413861122028584e-01 2.0672068637777810e-01  5.2750636921182137e-01 6.7414379394040602e-01 2.0672256999463742e-01  5.2750595927438804e-01 6.7414237716349190e-01 2.0672210612956271e-01  5.2749883413844900e-01 6.7411833561016066e-01 2.0671355383973355e-01  5.2746286168034229e-01 6.7399706689037797e-01 2.0667025440138720e-01  5.2744800267273328e-01 6.7394698323298896e-01 2.0665234365690544e-01  5.2743815318905840e-01 6.7391379424208375e-01 2.0664045519804355e-01  5.2743249943388271e-01 6.7389474821612916e-01 2.0663362309069869e-01  5.2743068965528672e-01 6.7388865162099809e-01 2.0663143550592766e-01  5.2743185172257046e-01 6.7389256325085312e-01 2.0663284315896660e-01  5.2743512843033713e-01 6.7390359172853709e-01 2.0663681276609364e-01  5.2743919786726101e-01 6.7391726730814627e-01 2.0664176040511914e-01  5.2741065567138268e-01 6.7382071269405053e-01 2.0660762335572885e-01  5.2738454591436823e-01 6.7373250012783170e-01 2.0657626973409038e-01  5.2736161846008589e-01 6.7365501651078730e-01 2.0654873194140325e-01  5.2734225397863677e-01 6.7358955223445827e-01 2.0652547450782460e-01  5.2732743842779306e-01 6.7353945051311193e-01 2.0650768320516669e-01  5.2731252600164658e-01 6.7348898859070028e-01 2.0648979251604047e-01  5.2730130115967389e-01 6.7345097486696504e-01 2.0647634394478481e-01  5.2728728200