<?xml version="1.0"?>
<VTKFile type="UnstructuredGrid"  version="0.1"  >
<UnstructuredGrid>
<Piece  NumberOfPoints="7288" NumberOfCells="14083">
<Points>
<DataArray  type="Float64"  NumberOfComponents="3"  format="ascii">239.8 188 0  250.2 180 0  258.2 172.4 0  257 169.4 0  259.9 157.4 0  258.7 150.3 0  261 143.5 0  251.7 144.4 0  250 138.7 0  247 138.1 0  245.2 130.8 0  247.3 126.4 0  242.7 118.6 0  231.2 107.7 0  226 102.4 0  226.5 93.90000000000001 0  224.5 91.19999999999999 0  224.5 84.09999999999999 0  234.5 73.80000000000001 0  228.4 68.90000000000001 0  230 70 0  233.4 68 0  222.7 61.5 0  220.6 45.5 0  223.4 49.40000000000001 0  224 47 0  221.8 43.09999999999999 0  221 38.40000000000001 0  219.5 38.5 0  219.4 41.69999999999999 0  217.1 36.90000000000001 0  209.7 36 0  209.5 31.69999999999999 0  205.1 29.90000000000001 0  201.5 30.40000000000001 0  199.2 38.69999999999999 0  201.8 41.40000000000001 0  194.8 53.80000000000001 0  196.1 57.69999999999999 0  193 59 0  191.4 66.09999999999999 0  193.5 66.5 0  194.1 64.40000000000001 0  195.6 64.69999999999999 0  195.4 72.40000000000001 0  199.5 77.30000000000001 0  197.7 86.90000000000001 0  200.6 87.5 0  201.5 91 0  198 94.80000000000001 0  198.6 100 0  197.3 105.4 0  198 109.5 0  197 112.7 0  198.3 116.1 0  201.3 122 0  207.2 121 0  208.1 126.7 0  205.6 127.9 0  209.1 134.9 0  210.9 144.4 0  210.1 147.9 0  213 148.4 0  215.4 149.3 0  215.1 152.8 0  219.9 159.7 0  220.3 163.2 0  218.7 164.9 0  219.9 166.7 0  221.9 169.7 0  220 170.3 0  224.9 174.7 0  229.8 177.4 0  229.7 181 0  228 172.9 0  239 178 0  240.4 180 0  239 181.5 0  241.2 185.9 0  242.95 187.99 0  240.5875 187.9975 0  241.375 187.995 0  242.1625 187.9925 0  243.6090909090879 187.2636363636397 0  244.2681818181765 186.5372727272785 0  244.9272727272692 185.810909090913 0  245.5863636363531 185.0845454545571 0  246.245454545445 184.3581818181923 0  246.9045454545351 183.6318181818295 0  247.5636363636303 182.9054545454612 0  248.2227272727197 182.1790909090992 0  248.8818181818179 181.4527272727275 0  249.5409090909066 180.7263636363664 0  250.8666666666961 179.3666666666387 0  251.5333333334033 178.7333333332668 0  252.2000000000994 178.0999999999055 0  252.8666666668011 177.466666666539 0  253.5333333335083 176.8333333331671 0  254.2000000002044 176.1999999998058 0  254.8666666669005 175.5666666664445 0  255.5333333336077 174.9333333330727 0  256.2000000002685 174.2999999997449 0  256.8666666668457 173.6666666664966 0  257.5333333334283 173.033333333243 0  257.9000000000077 171.6500000000191 0  257.6000000000015 170.9000000000038 0  257.2999999999954 170.1499999999885 0  257.2230769230778 168.4769230769195 0  257.4461538461543 167.5538461538442 0  257.6692307692309 166.6307692307688 0  257.8923076923074 165.7076923076935 0  258.115384615384 164.7846153846181 0  258.3384615384605 163.8615384615427 0  258.5615384615395 162.9384615384572 0  258.784615384616 162.0153846153819 0  259.0076923076926 161.0923076923065 0  259.2307692307691 160.1692307692311 0  259.4538461538457 159.2461538461558 0  259.6769230769222 158.3230769230804 0  259.750000000001 156.512500000006 0  259.6000000000014 155.6250000000082 0  259.4500000000029 154.7375000000176 0  259.3000000000018 153.8500000000108 0  259.1500000000007 152.962500000004 0  259.0000000000004 152.0750000000026 0  258.849999999999 151.187499999994 0  258.9875000000052 149.4499999999846 0  259.275000000002 148.5999999999941 0  259.5624999999954 147.7500000000135 0  259.849999999995 146.900000000015 0  260.1374999999945 146.0500000000164 0  260.4249999999913 145.2000000000259 0  260.7124999999948 144.3500000000154 0  260.0700000000398 143.5899999999961 0  259.1400000000573 143.6799999999944 0  258.2100000000351 143.7699999999966 0  257.2800000000262 143.8599999999975 0  256.350000000011 143.9499999999989 0  255.4199999999881 144.0400000000011 0  254.4899999999726 144.1300000000026 0  253.5599999999944 144.2200000000005 0  252.6300000000009 144.3099999999999 0  251.4166666666658 143.4499999999971 0  251.1333333333388 142.5000000000182 0  250.8500000000015 141.5500000000051 0  250.5666666666612 140.5999999999818 0  250.2833333333342 139.6500000000029 0  249.2500000000005 138.5500000000001 0  248.5000000000011 138.4000000000002 0  247.7499999999995 138.2499999999999 0  246.7750000000005 137.1875000000023 0  246.5500000000021 136.2750000000085 0  246.3250000000036 135.3625000000147 0  246.1000000000042 134.450000000017 0  245.8750000000022 133.5375000000088 0  245.650000000003 132.6250000000124 0  245.4250000000046 131.7125000000187 0  245.619999999996 129.9200000000084 0  246.0399999999992 129.0400000000017 0  246.4599999999987 128.1600000000028 0  246.8800000000001 127.2799999999997 0  246.8399999999988 125.6199999999979 0  246.3799999999984 124.8399999999973 0  245.9199999999991 124.0599999999985 0  245.4600000000036 123.2800000000062 0  245.0000000000049 122.5000000000082 0  244.5400000000036 121.7200000000062 0  244.0800000000033 120.9400000000056 0  243.6200000000016 120.1600000000027 0  243.1600000000012 119.3800000000021 0  241.9812499999996 117.9187499999997 0  241.2625000000007 117.2375000000007 0  240.5437500000017 116.5562500000017 0  239.8250000000041 115.875000000004 0  239.1062500000066 115.1937500000063 0  238.3875000000076 114.5125000000072 0  237.6687500000087 113.8312500000082 0  236.9500000000083 113.1500000000079 0  236.231250000008 112.4687500000076 0  235.512500000009 111.7875000000085 0  234.7937500000045 111.1062500000043 0  234.0750000000042 110.4250000000039 0  233.3562500000066 109.7437500000062 0  232.6375000000021 109.062500000002 0  231.9187500000031 108.381250000003 0  230.5500000000004 107.0375000000004 0  229.9000000000021 106.3750000000021 0  229.2500000000038 105.7125000000039 0  228.6000000000041 105.0500000000042 0  227.9500000000018 104.3875000000018 0  227.2999999999952 103.7249999999951 0  226.6500000000024 103.0625000000024 0  226.0555555555555 101.4555555555556 0  226.1111111111111 100.5111111111111 0  226.1666666666667 99.56666666666668 0  226.2222222222222 98.62222222222223 0  226.2777777777778 97.67777777777778 0  226.3333333333333 96.73333333333335 0  226.3888888888889 95.78888888888889 0  226.4444444444445 94.84444444444446 0  226 93.22499999999999 0  225.5000000000026 92.55000000000358 0  225.0000000000026 91.87500000000358 0  224.5 90.31250000000068 0  224.5 89.4250000000097 0  224.5 88.53750000001317 0  224.5 87.65000000001388 0  224.5 86.76250000001457 0  224.5 85.87500000001248 0  224.5 84.9874999999993 0  225.1666666666659 83.41333333333409 0  225.8333333333319 82.72666666666818 0  226.4999999999978 82.04000000000228 0  227.1666666666649 81.35333333333514 0  227.8333333333301 80.66666666667 0  228.4999999999942 79.980000000006 0  229.1666666666601 79.2933333333401 0  229.8333333333316 78.60666666666847 0  230.4999999999975 77.92000000000257 0  231.1666666666644 77.23333333333572 0  231.8333333333295 76.54666666667057 0  232.4999999999972 75.86000000000287 0  233.1666666666681 75.17333333333181 0  233.8333333333368 74.48666666666306 0  233.7499999999995 73.16666666666629 0  233.0000000000018 72.53333333333488 0  232.2500000000014 71.90000000000116 0  231.5000000000009 71.26666666666743 0  230.7500000000005 70.63333333333372 0  229.233333333333 68.75000000000006 0  230.0666666666665 68.60000000000004 0  230.8999999999995 68.45000000000009 0  231.7333333333325 68.30000000000015 0  232.566666666667 68.14999999999995 0  232.5499999999897 68.50000000000607 0  231.7 69 0  230.8500000000103 69.49999999999393 0  227.8300000000008 68.16000000000106 0  227.2600000000064 67.42000000000837 0  226.6900000000077 66.68000000001001 0  226.1200000000024 65.94000000000314 0  225.5500000000108 65.20000000001409 0  224.9800000000098 64.46000000001268 0  224.4100000000007 63.72000000000098 0  223.8399999999971 62.97999999999621 0  223.2699999999993 62.23999999999915 0  222.753846153846 60.56923076923239 0  222.8076923076921 59.63846153846478 0  222.8615384615381 58.70769230769827 0  222.9153846153842 57.77692307693071 0  222.9692307692302 56.84615384616315 0  223.0230769230761 55.91538461539836 0  223.0769230769224 54.98461538462665 0  223.1307692307688 54.05384615385345 0  223.184615384615 53.12307692308312 0  223.2384615384611 52.19230769231556 0  223.2923076923071 51.26153846154906 0  223.3461538461533 50.33076923077847 0  222.8400000000024 48.62000000000327 0  222.2800000000047 47.84000000000661 0  221.7200000000005 47.06000000000071 0  221.1600000000003 46.28000000000039 0  221.4500000000116 45.87500000000512 0  222.3 46.25 0  223.1499999999884 46.62499999999488 0  223.5600000000055 46.22000000000981 0  223.1199999999987 45.43999999999767 0  222.6800000000061 44.66000000001075 0  222.2399999999969 43.8799999999944 0  221.6400000000004 42.16000000000253 0  221.4800000000009 41.22000000000548 0  221.3200000000014 40.28000000000801 0  221.1600000000009 39.34000000000556 0  220.25 38.45 0  219.4749999999999 39.30000000000165 0  219.45 40.09999999999999 0  219.425 40.90000000000112 0  219.0166666666641 40.89999999999463 0  218.6333333333375 40.10000000000875 0  218.2500000000016 39.30000000000339 0  217.8666666666635 38.49999999999351 0  217.483333333337 37.70000000000762 0  216.1750000000165 36.78750000000201 0  215.2500000000275 36.67500000000335 0  214.3250000000385 36.56250000000469 0  213.4000000000277 36.45000000000337 0  212.4750000000059 36.33750000000072 0  211.5499999999838 36.22499999999803 0  210.6249999999835 36.11249999999799 0  209.6600000000001 35.14000000000318 0  209.6200000000001 34.28000000000268 0  209.5800000000001 33.42000000000284 0  209.5399999999998 32.55999999999681 0  208.6200000000117 31.34000000000476 0  207.7400000000138 30.98000000000564 0  206.8600000000162 30.62000000000662 0  205.9800000000174 30.26000000000711 0  204.2000000000054 30.02499999999925 0  203.2999999999946 30.15000000000076 0  202.3999999999945 30.27500000000076 0  201.2444444444438 31.32222222222468 0  200.9888888888895 32.24444444
[...]
<PointData  Vectors="f_12"> 
<DataArray  type="Float64"  Name="f_12"  NumberOfComponents="3" format="ascii">5.2475757376088394e-01 4.8948633615831499e-01 4.1444205317895327e-01  5.2632722632766349e-01 4.9376939587433505e-01 4.1773430182955351e-01  5.2819067069138159e-01 4.9854579450237674e-01 4.2171898540698377e-01  5.2905812414202757e-01 5.0056782525819288e-01 4.2365787277555850e-01  5.3486640295744514e-01 5.1250183739986854e-01 4.3700145668420992e-01  5.3854710317210375e-01 5.1824532310739024e-01 4.4605026021365241e-01  5.3969806879520676e-01 5.2002154270425616e-01 4.4879287246550709e-01  5.4470359785722600e-01 5.2311168556212762e-01 4.6346490428245091e-01  5.5154918397615083e-01 5.2482021234975718e-01 4.8417852235687869e-01  5.5474415189330395e-01 5.2336695340809847e-01 4.9495744128041147e-01  5.6485982096046194e-01 5.1216896475675411e-01 5.3232075968686055e-01  5.6766190099264513e-01 5.0667692595014047e-01 5.4398665902959376e-01  5.7081102726997557e-01 4.9595780057875438e-01 5.6036613122504941e-01  5.7580042881169657e-01 4.6091777755131053e-01 5.9946951771125823e-01  5.7702706377565971e-01 4.3662862770310679e-01 6.2043794561675270e-01  5.7719403755513377e-01 4.1623179149939127e-01 6.3551971159247622e-01  5.7706134629487416e-01 4.1054899827550423e-01 6.3922521473918481e-01  5.7651600745386522e-01 3.9680904815216994e-01 6.4750044874758861e-01  5.7603072392403931e-01 3.8832262253026995e-01 6.5214054088451268e-01  5.7596789442408902e-01 3.8747296413410942e-01 6.5256721178278365e-01  5.7598811864986132e-01 3.8773813660175255e-01 6.5243557063325597e-01  5.7597595103183263e-01 3.8755103190099127e-01 6.5253321474353931e-01  5.7571367987322253e-01 3.8419363721721750e-01 6.5417601676612114e-01  5.7543308705638918e-01 3.8082052323493248e-01 6.5576761863772182e-01  5.7548053262476595e-01 3.8136508839700539e-01 6.5551708009314991e-01  5.7542304119158616e-01 3.8070529447218909e-01 6.5582056600846506e-01  5.7542018192210986e-01 3.8067354655306657e-01 6.5583491903744062e-01  5.7541113226469842e-01 3.8057082767581013e-01 6.5588185526526610e-01  5.7541114643756308e-01 3.8057099472386346e-01 6.5588177754897570e-01  5.7541415205319035e-01 3.8060598545479568e-01 6.5586559212799667e-01  5.7539814504556974e-01 3.8042849836889231e-01 6.5594571191919693e-01  5.7538097655087517e-01 3.8024224387226258e-01 6.5602877375357016e-01  5.7536910929504526e-01 3.8011336751057762e-01 6.5608624967962514e-01  5.7536641359294594e-01 3.8008427480062812e-01 6.5609917602972856e-01  5.7536628369040610e-01 3.8008294658844222e-01 6.5609974792492820e-01  5.7537884663987182e-01 3.8022015476080118e-01 6.5603837641771623e-01  5.7539805191930060e-01 3.8043208681809826e-01 6.5594300426091112e-01  5.7551932791667837e-01 3.8181200599882709e-01 6.5531073379568616e-01  5.7557578615001259e-01 3.8248339657591135e-01 6.5499568309013889e-01  5.7560872223653547e-01 3.8287674274406985e-01 6.5481044896348184e-01  5.7574940742563874e-01 3.8463181747462061e-01 6.5396591549064087e-01  5.7574741628429349e-01 3.8461045824205509e-01 6.5397560762026241e-01  5.7565787573945593e-01 3.8348505444135200e-01 6.5451925798960908e-01  5.7568856877039853e-01 3.8387164437056370e-01 6.5433254897125803e-01  5.7584414136086826e-01 3.8590767691700478e-01 6.5333174825107598e-01  5.7614110095518922e-01 3.9019799197411759e-01 6.5113100108308519e-01  5.7657855799530866e-01 3.9738038278615800e-01 6.4724862361551494e-01  5.7667384374521802e-01 3.9937552194471410e-01 6.4609817756428500e-01  5.7699807686724869e-01 4.0677553143824285e-01 6.4171370041112097e-01  5.7724418815089273e-01 4.1348268083902318e-01 6.3756487479791935e-01  5.7737149401972809e-01 4.1935519753708894e-01 6.3368637820578122e-01  5.7744990122701079e-01 4.2657408005887648e-01 6.2868312446290031e-01  5.7743224516927305e-01 4.3191433109732369e-01 6.2476995911805200e-01  5.7739348084807829e-01 4.3545191390854954e-01 6.2209816969671261e-01  5.7731443361448398e-01 4.3863077100625819e-01 6.1958582750484148e-01  5.7709335521647498e-01 4.4405912824676685e-01 6.1507725989604867e-01  5.7619170349825455e-01 4.5542848310928680e-01 6.0452892427243088e-01  5.7356692049600444e-01 4.7972329871417008e-01 5.7976842675579243e-01  5.7303306507736262e-01 4.8377554925469973e-01 5.7533462098712862e-01  5.7024780219048943e-01 4.9670913830098157e-01 5.5839109021695477e-01  5.6395529366912667e-01 5.1507188918853397e-01 5.2762382692927978e-01  5.6289869256223091e-01 5.1726968071511303e-01 5.2304155585630163e-01  5.6206390101693493e-01 5.1825630589447091e-01 5.1997826235472333e-01  5.5922525045231553e-01 5.2127744888881355e-01 5.0965306018024648e-01  5.5552146114668710e-01 5.2435257630742793e-01 4.9655333201040364e-01  5.4662307477211691e-01 5.2424929322393687e-01 4.6893693403924303e-01  5.4188416145283003e-01 5.2137077055349546e-01 4.5530868036673394e-01  5.4055719908791433e-01 5.2030446111457074e-01 4.5156026843404240e-01  5.3973394875063241e-01 5.1944525537105712e-01 4.4933063549524910e-01  5.3818991268950567e-01 5.1757915138959543e-01 4.4527398236046867e-01  5.3858980115892674e-01 5.1816771314790666e-01 4.4626293709626241e-01  5.3586552864356773e-01 5.1416086303846598e-01 4.3944378644759557e-01  5.3112081485379359e-01 5.0521111442506983e-01 4.2827185036407778e-01  5.3057395057658596e-01 5.0412162486041578e-01 4.2697111424049278e-01  5.3452132793437690e-01 5.1167262307513750e-01 4.3631875204128723e-01  5.2840385134088463e-01 4.9885940333175621e-01 4.2231396625459383e-01  5.2640685757655892e-01 4.9385347001976654e-01 4.1798195562685642e-01  5.2571691842162638e-01 4.9206646329029224e-01 4.1649190649100998e-01  5.2492283892292002e-01 4.8993959484583061e-01 4.1479172366743344e-01  5.2482207393513558e-01 4.8966512405297347e-01 4.1457749429392365e-01  5.2476588879510389e-01 4.8950930184521885e-01 4.1445957104612619e-01  5.2478379489570814e-01 4.8955886799559467e-01 4.1449722352715473e-01  5.2480416082558390e-01 4.8961539326940273e-01 4.1453994457334742e-01  5.2486755035029220e-01 4.8979088952380168e-01 4.1467304310908776e-01  5.2494893166458712e-01 4.9001569974083292e-01 4.1484400099104946e-01  5.2505406915740649e-01 4.9030578799059688e-01 4.1506471755149382e-01  5.2517728039109945e-01 4.9064517837796218e-01 4.1532318529143863e-01  5.2531542330089831e-01 4.9102488304811787e-01 4.1561279362073411e-01  5.2546422553255934e-01 4.9143293951777489e-01 4.1592449086834404e-01  5.2562371876046698e-01 4.9186877250283706e-01 4.1625859562717921e-01  5.2579054712335938e-01 4.9232295706265233e-01 4.1660808645000330e-01  5.2596198100623981e-01 4.9278773884546745e-01 4.1696730610171845e-01  5.2614062500612524e-01 4.9326932246687732e-01 4.1734216248814848e-01  5.2650207019160178e-01 4.9423539659651244e-01 4.1810218966148843e-01  5.2667227125653082e-01 4.9468619134665903e-01 4.1846098868794673e-01  5.2684361579638062e-01 4.9513660325980918e-01 4.1882326490023114e-01  5.2701625924750461e-01 4.9558692497936330e-01 4.1918942425903860e-01  5.2718912479492741e-01 4.9603424127900242e-01 4.1955723169492148e-01  5.2736095633126068e-01 4.9647531707974191e-01 4.1992404357503454e-01  5.2753216984760787e-01 4.9691089485113416e-01 4.2029099323049046e-01  5.2769980840276631e-01 4.9733353276382880e-01 4.2065176665174459e-01  5.2785934468204077e-01 4.9773203651365755e-01 4.2099659602341166e-01  5.2800490419287471e-01 4.9809218602938765e-01 4.2131271130165648e-01  5.2812440664959703e-01 4.9838501726460965e-01 4.2157355299663507e-01  5.2826451853646961e-01 4.9872050336537371e-01 4.2188345753302647e-01  5.2842771334482319e-01 4.9910413620723421e-01 4.2224772606272221e-01  5.2867590735714709e-01 4.9968334587329089e-01 4.2280256676536532e-01  5.2955793348227942e-01 5.0171202669177406e-01 4.2477751426396498e-01  5.3001164963480774e-01 5.0273528512260313e-01 4.2579631449911987e-01  5.3046144781555848e-01 5.0373283131502511e-01 4.2680958978425892e-01  5.3091502398822377e-01 5.0472088178207219e-01 4.2783534934698592e-01  5.3137336918137634e-01 5.0570053699024065e-01 4.2887643243824375e-01  5.3183546023350370e-01 5.0666873155419900e-01 4.2993100235749793e-01  5.3229917162118456e-01 5.0762034310287163e-01 4.3099460032567039e-01  5.3276211763542569e-01 5.0855027485219184e-01 4.3206205380784141e-01  5.3322031060397945e-01 5.0945019681445625e-01 4.3312448390909480e-01  5.3367189520742309e-01 5.1031629311398308e-01 4.3417815595023251e-01  5.3410831499041223e-01 5.1113358408622034e-01 4.3520286781434653e-01  5.3451988728967970e-01 5.1188521757146044e-01 4.3617599322746803e-01  5.3520913322563435e-01 5.1309114933102040e-01 4.3782675643297425e-01  5.3562229643911774e-01 5.1378311629979390e-01 4.3882861836936582e-01  5.3607281107824922e-01 5.1451801955793830e-01 4.3992770905738282e-01  5.3654528606051266e-01 5.1526761620858430e-01 4.4108734136529665e-01  5.3703084695089420e-01 5.1601699578767912e-01 4.4228529658714388e-01  5.3752252430196223e-01 5.1675625335076925e-01 4.4350332185559405e-01  5.3802097680931837e-01 5.1748758859110344e-01 4.4474196741311683e-01  5.3896733173022593e-01 5.1885882144840756e-01 4.4708320326227502e-01  5.3925889447585484e-01 5.1928560059225970e-01 4.4779510650544901e-01  5.3945346802972705e-01 5.1958055530315361e-01 4.4826085746076055e-01  5.3958296825267493e-01 5.1978574037707548e-01 4.4856343489926243e-01  5.3965748144309877e-01 5.1991549639359091e-01 4.4872867231038488e-01  5.3969169643816106e-01 5.1998721338941045e-01 4.4879562988371896e-01  5.3969968680250890e-01 5.2001665080508486e-01 4.4880204424416964e-01  5.3971131664190897e-01 5.2002814860588675e-01 4.4883408986430556e-01  5.3976786866831583e-01 5.2006393962334552e-01 4.4900443962308478e-01  5.3988671969952451e-01 5.2014708060108239e-01 4.4935630514975811e-01  5.4008098591864595e-01 5.2028691149492046e-01 4.4992747022513147e-01  5.4036987695503158e-01 5.2049622954307750e-01 4.5077318426676904e-01  5.4077100967012615e-01 5.2078258680435352e-01 4.5194526727633405e-01  5.4130652628478482e-01 5.2115058072347631e-01 4.5351020289658212e-01  5.4201675193309906e-01 5.2161134316715718e-01 4.5558722620060854e-01  5.4300576770701026e-01 5.2220303850744176e-01 4.5848264536263045e-01  5.4669842217583986e-01 5.2400137450741291e-01 4.6935772226415751e-01  5.4810187694686052e-01 5.2447919378934627e-01 4.7354693500762340e-01  5.4929474614080476e-01 5.2475051635323600e-01 4.7715520014558033e-01  5.5029524886445269e-01 5.2486559835167979e-01 4.8022939376729168e-01  5.5108560658443895e-01 5.2487221892669467e-01 4.8269910701807084e-01  5.5183288216835202e-01 5.2473558301602052e-01 4.8511433897537487e-01  5.5243249691599561e-01 5.2451675423999622e-01 4.8711276073407811e-01  5.5332373180404748e-01 5.2411907706438388e-01 4.9011705005733069e-01  5.5664342821633084e-01 5.2213395090415360e-01 5.0153524802795713e-01  5.5806609960108255e-01 5.2100227918297459e-01 5.0655989806133750e-01  5.5932261367618286e-01 5.1981949906837210e-01 5.1108567609616684e-01  5.6048410318384656e-01 5.1855651076012610e-01 5.1535478739751117e-01  5.6158089677474776e-01 5.1720092080131297e-01 5.1947217938471957e-01  5.6263726745757692e-01 5.1573982838968047e-01 5.2352247785937700e-01  5.6368808587914543e-01 5.1413250283308387e-01 5.2763682031632375e-01  5.6588496690047352e-01 5.1032036815761883e-01 5.3649175316567799e-01  5.6657507316062572e-01 5.0899364806002145e-01 5.3934638075800978e-01  5.6708851724996401e-01 5.0794570445930276e-01 5.4150714026112612e-01  5.6745829804660641e-01 5.0714593100212269e-01 5.4309299814969247e-01  5.6783046364895728e-01 5.0623633671060575e-01 5.4476596242686648e-01  5.6809761696464134e-01 5.0549321027263683e-01 5.4603476213570867e-01  5.6841424070198154e-01 5.0456402749128970e-01 5.4757425857884245e-01  5.6876109768453775e-01 5.0349329474504123e-01 5.4929918330675487e-01  5.6911968489992681e-01 5.0232709647555529e-01 5.5112543642438583e-01  5.6948273084707912e-01 5.0108568499395778e-01 5.5301807495455857e-01  5.6984300231897156e-01 4.9979121589188197e-01 5.5494120666534630e-01  5.7019257754123598e-01 4.9847028899667511e-01 5.5685418516269314e-01  5.7052270025859120e-01 4.9715993992611690e-01 5.5870635464874818e-01  5.7112320146336082e-01 4.9457571473655931e-01 5.6222250046764310e-01  5.7146904400072951e-01 4.9295822391451505e-01 5.6434232460430012e-01  5.7182396441470984e-01 4.9120642108706486e-01 5.6658497009910891e-01  5.7218224607744383e-01 4.8933716236443831e-01 5.6892228334443051e-01  5.7253899461093249e-01 4.8737001556454573e-01 5.7132660007870195e-01  5.7289059622535710e-01 4.8531637134188260e-01 5.7377976764614591e-01  5.7323529594996769e-01 4.8318051260759887e-01 5.7627382660672066e-01  5.7357105577543654e-01 4.8096923278426984e-01 5.7879832797330022e-01  5.7389587954567822e-01 4.7869091242996964e-01 5.8134181266318097e-01  5.7420906658773041e-01 4.7634466633956707e-01 5.8390303619875072e-01  5.7450960479898283e-01 4.7393455862560230e-01 5.8647632039790232e-01  5.7479631998975023e-01 4.7146632146017381e-01 5.8905434287127922e-01  5.7506948208758579e-01 4.6893103380426471e-01 5.9164431647060634e-01  5.7532674864834177e-01 4.6633994292747749e-01 5.9423169301785361e-01  5.7557008068022986e-01 4.6367433360536692e-01 5.9683529961296922e-01  5.7600150601796629e-01 4.5827497412540685e-01 6.0194090900587183e-01  5.7618512389088039e-01 4.5561361993926308e-01 6.0437781913730759e-01  5.7635387948526795e-01 4.5290708143944886e-01 6.0680641947511715e-01  5.7650803446483478e-01 4.5012527957739945e-01 6.0924891214616850e-01  5.7664885509067088e-01 4.4725375216703511e-01 6.1171831974228486e-01  5.7677824933734845e-01 4.4422361085028811e-01 6.1426885599077452e-01  5.7689973548743556e-01 4.4087282793881782e-01 6.1702574788942022e-01  5.7712480519373721e-01 4.3246420375033423e-01 6.2370492132584709e-01  5.7717909777450083e-01 4.2939039499517961e-01 6.2606194374996949e-01  5.7721148521332100e-01 4.2676788253476272e-01 6.2803091847323822e-01  5.7722880626425810e-01 4.2443387785222469e-01 6.2974935312300218e-01  5.7723475784350509e-01 4.2232360849967121e-01 6.3127508237335017e-01  5.7723172121851840e-01 4.2041734585209922e-01 6.3262966436506929e-01  5.7722188734461333e-01 4.1871848596930583e-01 6.3381728321525510e-01  5.7720780645833425e-01 4.1726630104589668e-01 6.3481720146340015e-01  5.7717892008479921e-01 4.1538788508407082e-01 6.3608284489184841e-01  5.7715284309425507e-01 4.1413076507866681e-01 6.3691210379641228e-01  5.7711610588740347e-01 4.1258698549234585e-01 6.3791709624245263e-01  5.7699462689616621e-01 4.0833086540346408e-01 6.4062731420060792e-01  5.7693379944317957e-01 4.0650243786666379e-01 6.4176508650531727e-01  5.7687314832973746e-01 4.0483190026860150e-01 6.4278891462919618e-01  5.7681116515741915e-01 4.0324783746653925e-01 6.4374591682768567e-01  5.7674702661488431e-01 4.0171619483061716e-01 6.4465829231176353e-01  5.7667985527012133e-01 4.0020507669898631e-01 6.4554619210435538e-01  5.7660732992144303e-01 3.9865984216589540e-01 6.4644198087366644e-01  5.7642652446747611e-01 3.9507745538512712e-01 6.4847764236012695e-01  5.7636132036355436e-01 3.9386363709180205e-01 6.4915438630253952e-01  5.7630651894581353e-01 3.9287599109126342e-01 6.4969932229332739e-01  5.7625885320220449e-01 3.9204059665511071e-01 6.5015608148506698e-01  5.7621689969902268e-01 3.9132292127789919e-01 6.5054536433652510e-01  5.7617988270750997e-01 3.9070291899489984e-01 6.5087932155229866e-01  5.7614740103546092e-01 3.9016885959043596e-01 6.5116520759094931e-01  5.7611921759150009e-01 3.8971285869020750e-01 6.5140797979687737e-01  5.7609509562228334e-01 3.8932784793689607e-01 6.5161199750563825e-01  5.7607495318340463e-01 3.8900998870030679e-01 6.5177976119980685e-01  5.7605864894804837e-01 3.8875504259540555e-01 6.5191388194725652e-01  5.7604617114898837e-01 3.8856127886926828e-01 6.5201555907328013e-01  5.7603744585719030e-01 3.8842641851067988e-01 6.5208620280744434e-01  5.7603231865302151e-01 3.8834739472130997e-01 6.5212755268467937e-01  5.7602996642070714e-01 3.8831273148228240e-01 6.5214545705293125e-01  5.7602712469435557e-01 3.8827429804601149e-01 6.5216478483657059e-01  5.7602197476501882e-01 3.8820416687775872e-01 6.5220012452723941e-01  5.7601444539320545e-01 3.8810138787832377e-01 6.5225193965385719e-01  5.7600391432038123e-01 3.8795699669443623e-01 6.5232480574292795e-01  5.7597814421358251e-01 3.8760252349020013e-01 6.5250375011823547e-01  5.7598005518487538e-01 3.8762106327536378e-01 6.5249566789366498e-01  5.7597876141650939e-01 3.8759742610461068e-01 6.5250854840983430e-01  5.7597736309482528e-01 3.8757412059485358e-01 6.5252097005258569e-01  5.7597640776410330e-01 3.8755848757339617e-01 6.5252926260140076e-01  5.7597650005499135e-01 3.8755999387361223e-01 6.5252846416140475e-01  5.7597782587513036e-01 3.8758158150907485e-01 6.5251702753948881e-01  5.7598037023927651e-01 3.8762220027030980e-01 6.5249561599769246e-01  5.7594642453601386e-01 3.8719022275525161e-01 6.5270765321089130e-01  5.7592575411369884e-01 3.8691714789762349e-01 6.5284332185103622e-01  5.7590434029221971e-01 3.8663512124460830e-01 6.5298315794880146e-01  5.7588199391537509e-01 3.8634236890588408e-01 6.5312790364094586e-01  5.7585863771623569e-01 3.8603832526491544e-01 6.5327774336403388e-01  5.7583425368323815e-01 3.8572306817592666e-01 6.5343256625633661e-01  5.7580865123046521e-01 3.8539441209452346e-01 6.5359337238762150e-01  5.7578137126221096e-01 3.8504671804317203e-01 6.5376284293407594e-01  5.7575130561864574e-01 3.8466629522876056e-01 6.5394752041581261e-01  5.7567642106948202e-01 3.8372883654822637e-01 6.5439979158617056e-01  5.7564809268942230e-01 3.8337804457748931e-01 6.5456795596536288e-01  5.7562342305619951e-01 3.8307471377405039e-01 6.5471278720556569e-01  5.7560139021043333e-01 3.8280566776088815e-01 6.5484075690273336e-01  5.7558138223959709e-01 3.8256293006238845e-01 6.5495580207501969e-01  5.7556317255235390e-01 3.8234338119405858e-01 6.5505950495489484e-01  5.7554658612199316e-01 3.8214458097488013e-01 6.5515310770521495e-01  5.7553151973991079e-01 3.8196500630254454e-01 6.5523740362443605e-01  5.7551791420470211e-01 3.8180369473002823e-01 6.5531291200535591e-01  5.7550579541532831e-01 3.8166072400216255e-01 6.5537965639193829e-01  5.7549522393461816e-01 3.8153658721887734e-01 6.5543746426399918e-01  5.7548642194948840e-01 3.8143367675264850e-01 6.5548527769710796e-01  5.7547473545984784e-01 3.8129797772357593e-01 6.5554810342173675e-01  5.7546695919093027e-01 3.8120831361030955e-01 6.5558946578617827e-01  5.7545803468592061e-01 3.8110578959898128e-01 6.5563666384189834e-01  5.7544768025714932e-01 3.8098723076961588e-01 6.5569113778136590e-01  5.7542604509361739e-01 3.8073988595856045e-01 6.5580464452100085e-01  5.7542397384760247e-01 3.8071607857867018e-01 6.5581559353954988e-01  5.7542325774553782e-01 3.8070780527836051e-01 6.5581940692754248e-01  5.7542324343446893e-01 3.8070763984543227e-01 6.5581948319163641e-01  5.7542362471813213e-01 3.8071208679054702e-01 6.5581742459229142e-01  5.7542372977326750e-01 3.8071345189427180e-01 6.5581676255620136e-01  5.7542271331874284e-01 3.8070209891621548e-01 6.5582191043622051e-01  5.7541690700347792e-01 3.8063649790987181e-01 6.5585182168121603e-01  5.7541436860427997e-01 3.8060771234854518e-01 6.5586496882730383e-01  5.7541258429631825e-01 3.8058740473497060e-01 6.5587425985492709e-01  5.7541150907373084e-01 3.8057513315812230e-01 6.5587988175167689e-01  5.7541116128637693e-01 3.8057116206217045e-01 6.5588170136751334e-01  5.7541140535044444e-01 3.8057396364320062e-01 6.5588041431432098e-01  5.7541209775741520e-01 3.8058191560565868e-01 6.5587676024177910e-01  5.7541308645237654e-01 3.8059335740668676e-01 6.5587148290588215e-01  5.7541021863832686e-01 3.8056246598526910e-01 6.5588521946999168e-01  5.7540672358937794e-01 3.8052363109024667e-01 6.5590277046372336e-01  5.7540365198140120e-01 3.8048950895019495e-01 6.5591818798109458e-01  5.7540109006014550e-01 3.8046108799697315e-01 6.5593101913316143e-01  5.7539916237737920e-01 3.8043973899840716e-01 6.5594064837294763e-01  5.7539734575578427e-01 3.8041974459210870e-01 6.5594963674644469e-01  5.7539609941566872e-01 3.8040615449219017e-01 6.5595571556588317e-01  5.7539458407