<?xml version="1.0"?>
<VTKFile type="UnstructuredGrid"  version="0.1"  >
<UnstructuredGrid>
<Piece  NumberOfPoints="7288" NumberOfCells="14083">
<Points>
<DataArray  type="Float64"  NumberOfComponents="3"  format="ascii">239.8 188 0  250.2 180 0  258.2 172.4 0  257 169.4 0  259.9 157.4 0  258.7 150.3 0  261 143.5 0  251.7 144.4 0  250 138.7 0  247 138.1 0  245.2 130.8 0  247.3 126.4 0  242.7 118.6 0  231.2 107.7 0  226 102.4 0  226.5 93.90000000000001 0  224.5 91.19999999999999 0  224.5 84.09999999999999 0  234.5 73.80000000000001 0  228.4 68.90000000000001 0  230 70 0  233.4 68 0  222.7 61.5 0  220.6 45.5 0  223.4 49.40000000000001 0  224 47 0  221.8 43.09999999999999 0  221 38.40000000000001 0  219.5 38.5 0  219.4 41.69999999999999 0  217.1 36.90000000000001 0  209.7 36 0  209.5 31.69999999999999 0  205.1 29.90000000000001 0  201.5 30.40000000000001 0  199.2 38.69999999999999 0  201.8 41.40000000000001 0  194.8 53.80000000000001 0  196.1 57.69999999999999 0  193 59 0  191.4 66.09999999999999 0  193.5 66.5 0  194.1 64.40000000000001 0  195.6 64.69999999999999 0  195.4 72.40000000000001 0  199.5 77.30000000000001 0  197.7 86.90000000000001 0  200.6 87.5 0  201.5 91 0  198 94.80000000000001 0  198.6 100 0  197.3 105.4 0  198 109.5 0  197 112.7 0  198.3 116.1 0  201.3 122 0  207.2 121 0  208.1 126.7 0  205.6 127.9 0  209.1 134.9 0  210.9 144.4 0  210.1 147.9 0  213 148.4 0  215.4 149.3 0  215.1 152.8 0  219.9 159.7 0  220.3 163.2 0  218.7 164.9 0  219.9 166.7 0  221.9 169.7 0  220 170.3 0  224.9 174.7 0  229.8 177.4 0  229.7 181 0  228 172.9 0  239 178 0  240.4 180 0  239 181.5 0  241.2 185.9 0  242.95 187.99 0  240.5875 187.9975 0  241.375 187.995 0  242.1625 187.9925 0  243.6090909090879 187.2636363636397 0  244.2681818181765 186.5372727272785 0  244.9272727272692 185.810909090913 0  245.5863636363531 185.0845454545571 0  246.245454545445 184.3581818181923 0  246.9045454545351 183.6318181818295 0  247.5636363636303 182.9054545454612 0  248.2227272727197 182.1790909090992 0  248.8818181818179 181.4527272727275 0  249.5409090909066 180.7263636363664 0  250.8666666666961 179.3666666666387 0  251.5333333334033 178.7333333332668 0  252.2000000000994 178.0999999999055 0  252.8666666668011 177.466666666539 0  253.5333333335083 176.8333333331671 0  254.2000000002044 176.1999999998058 0  254.8666666669005 175.5666666664445 0  255.5333333336077 174.9333333330727 0  256.2000000002685 174.2999999997449 0  256.8666666668457 173.6666666664966 0  257.5333333334283 173.033333333243 0  257.9000000000077 171.6500000000191 0  257.6000000000015 170.9000000000038 0  257.2999999999954 170.1499999999885 0  257.2230769230778 168.4769230769195 0  257.4461538461543 167.5538461538442 0  257.6692307692309 166.6307692307688 0  257.8923076923074 165.7076923076935 0  258.115384615384 164.7846153846181 0  258.3384615384605 163.8615384615427 0  258.5615384615395 162.9384615384572 0  258.784615384616 162.0153846153819 0  259.0076923076926 161.0923076923065 0  259.2307692307691 160.1692307692311 0  259.4538461538457 159.2461538461558 0  259.6769230769222 158.3230769230804 0  259.750000000001 156.512500000006 0  259.6000000000014 155.6250000000082 0  259.4500000000029 154.7375000000176 0  259.3000000000018 153.8500000000108 0  259.1500000000007 152.962500000004 0  259.0000000000004 152.0750000000026 0  258.849999999999 151.187499999994 0  258.9875000000052 149.4499999999846 0  259.275000000002 148.5999999999941 0  259.5624999999954 147.7500000000135 0  259.849999999995 146.900000000015 0  260.1374999999945 146.0500000000164 0  260.4249999999913 145.2000000000259 0  260.7124999999948 144.3500000000154 0  260.0700000000398 143.5899999999961 0  259.1400000000573 143.6799999999944 0  258.2100000000351 143.7699999999966 0  257.2800000000262 143.8599999999975 0  256.350000000011 143.9499999999989 0  255.4199999999881 144.0400000000011 0  254.4899999999726 144.1300000000026 0  253.5599999999944 144.2200000000005 0  252.6300000000009 144.3099999999999 0  251.4166666666658 143.4499999999971 0  251.1333333333388 142.5000000000182 0  250.8500000000015 141.5500000000051 0  250.5666666666612 140.5999999999818 0  250.2833333333342 139.6500000000029 0  249.2500000000005 138.5500000000001 0  248.5000000000011 138.4000000000002 0  247.7499999999995 138.2499999999999 0  246.7750000000005 137.1875000000023 0  246.5500000000021 136.2750000000085 0  246.3250000000036 135.3625000000147 0  246.1000000000042 134.450000000017 0  245.8750000000022 133.5375000000088 0  245.650000000003 132.6250000000124 0  245.4250000000046 131.7125000000187 0  245.619999999996 129.9200000000084 0  246.0399999999992 129.0400000000017 0  246.4599999999987 128.1600000000028 0  246.8800000000001 127.2799999999997 0  246.8399999999988 125.6199999999979 0  246.3799999999984 124.8399999999973 0  245.9199999999991 124.0599999999985 0  245.4600000000036 123.2800000000062 0  245.0000000000049 122.5000000000082 0  244.5400000000036 121.7200000000062 0  244.0800000000033 120.9400000000056 0  243.6200000000016 120.1600000000027 0  243.1600000000012 119.3800000000021 0  241.9812499999996 117.9187499999997 0  241.2625000000007 117.2375000000007 0  240.5437500000017 116.5562500000017 0  239.8250000000041 115.875000000004 0  239.1062500000066 115.1937500000063 0  238.3875000000076 114.5125000000072 0  237.6687500000087 113.8312500000082 0  236.9500000000083 113.1500000000079 0  236.231250000008 112.4687500000076 0  235.512500000009 111.7875000000085 0  234.7937500000045 111.1062500000043 0  234.0750000000042 110.4250000000039 0  233.3562500000066 109.7437500000062 0  232.6375000000021 109.062500000002 0  231.9187500000031 108.381250000003 0  230.5500000000004 107.0375000000004 0  229.9000000000021 106.3750000000021 0  229.2500000000038 105.7125000000039 0  228.6000000000041 105.0500000000042 0  227.9500000000018 104.3875000000018 0  227.2999999999952 103.7249999999951 0  226.6500000000024 103.0625000000024 0  226.0555555555555 101.4555555555556 0  226.1111111111111 100.5111111111111 0  226.1666666666667 99.56666666666668 0  226.2222222222222 98.62222222222223 0  226.2777777777778 97.67777777777778 0  226.3333333333333 96.73333333333335 0  226.3888888888889 95.78888888888889 0  226.4444444444445 94.84444444444446 0  226 93.22499999999999 0  225.5000000000026 92.55000000000358 0  225.0000000000026 91.87500000000358 0  224.5 90.31250000000068 0  224.5 89.4250000000097 0  224.5 88.53750000001317 0  224.5 87.65000000001388 0  224.5 86.76250000001457 0  224.5 85.87500000001248 0  224.5 84.9874999999993 0  225.1666666666659 83.41333333333409 0  225.8333333333319 82.72666666666818 0  226.4999999999978 82.04000000000228 0  227.1666666666649 81.35333333333514 0  227.8333333333301 80.66666666667 0  228.4999999999942 79.980000000006 0  229.1666666666601 79.2933333333401 0  229.8333333333316 78.60666666666847 0  230.4999999999975 77.92000000000257 0  231.1666666666644 77.23333333333572 0  231.8333333333295 76.54666666667057 0  232.4999999999972 75.86000000000287 0  233.1666666666681 75.17333333333181 0  233.8333333333368 74.48666666666306 0  233.7499999999995 73.16666666666629 0  233.0000000000018 72.53333333333488 0  232.2500000000014 71.90000000000116 0  231.5000000000009 71.26666666666743 0  230.7500000000005 70.63333333333372 0  229.233333333333 68.75000000000006 0  230.0666666666665 68.60000000000004 0  230.8999999999995 68.45000000000009 0  231.7333333333325 68.30000000000015 0  232.566666666667 68.14999999999995 0  232.5499999999897 68.50000000000607 0  231.7 69 0  230.8500000000103 69.49999999999393 0  227.8300000000008 68.16000000000106 0  227.2600000000064 67.42000000000837 0  226.6900000000077 66.68000000001001 0  226.1200000000024 65.94000000000314 0  225.5500000000108 65.20000000001409 0  224.9800000000098 64.46000000001268 0  224.4100000000007 63.72000000000098 0  223.8399999999971 62.97999999999621 0  223.2699999999993 62.23999999999915 0  222.753846153846 60.56923076923239 0  222.8076923076921 59.63846153846478 0  222.8615384615381 58.70769230769827 0  222.9153846153842 57.77692307693071 0  222.9692307692302 56.84615384616315 0  223.0230769230761 55.91538461539836 0  223.0769230769224 54.98461538462665 0  223.1307692307688 54.05384615385345 0  223.184615384615 53.12307692308312 0  223.2384615384611 52.19230769231556 0  223.2923076923071 51.26153846154906 0  223.3461538461533 50.33076923077847 0  222.8400000000024 48.62000000000327 0  222.2800000000047 47.84000000000661 0  221.7200000000005 47.06000000000071 0  221.1600000000003 46.28000000000039 0  221.4500000000116 45.87500000000512 0  222.3 46.25 0  223.1499999999884 46.62499999999488 0  223.5600000000055 46.22000000000981 0  223.1199999999987 45.43999999999767 0  222.6800000000061 44.66000000001075 0  222.2399999999969 43.8799999999944 0  221.6400000000004 42.16000000000253 0  221.4800000000009 41.22000000000548 0  221.3200000000014 40.28000000000801 0  221.1600000000009 39.34000000000556 0  220.25 38.45 0  219.4749999999999 39.30000000000165 0  219.45 40.09999999999999 0  219.425 40.90000000000112 0  219.0166666666641 40.89999999999463 0  218.6333333333375 40.10000000000875 0  218.2500000000016 39.30000000000339 0  217.8666666666635 38.49999999999351 0  217.483333333337 37.70000000000762 0  216.1750000000165 36.78750000000201 0  215.2500000000275 36.67500000000335 0  214.3250000000385 36.56250000000469 0  213.4000000000277 36.45000000000337 0  212.4750000000059 36.33750000000072 0  211.5499999999838 36.22499999999803 0  210.6249999999835 36.11249999999799 0  209.6600000000001 35.14000000000318 0  209.6200000000001 34.28000000000268 0  209.5800000000001 33.42000000000284 0  209.5399999999998 32.55999999999681 0  208.6200000000117 31.34000000000476 0  207.7400000000138 30.98000000000564 0  206.8600000000162 30.62000000000662 0  205.9800000000174 30.26000000000711 0  204.2000000000054 30.02499999999925 0  203.2999999999946 30.15000000000076 0  202.3999999999945 30.27500000000076 0  201.2444444444438 31.32222222222468 0  200.9888888888895 32.24444444
[...]
<PointData  Vectors="f_12"> 
<DataArray  type="Float64"  Name="f_12"  NumberOfComponents="3" format="ascii">5.6634798288405264e-01 5.9150510660320810e-01 4.6662467331544888e-01  5.6634798288405297e-01 5.9150510660320754e-01 4.6662467331545054e-01  5.6634798288407429e-01 5.9150510660318201e-01 4.6662467331550517e-01  5.6634798288419586e-01 5.9150510660299471e-01 4.6662467331583563e-01  5.6634798293215449e-01 5.9150510647821719e-01 4.6662467347164488e-01  5.6634798417558385e-01 5.9150510202834794e-01 4.6662467822365650e-01  5.6634798421011812e-01 5.9150510198576600e-01 4.6662467830504395e-01  5.6634827287239431e-01 5.9150357016569044e-01 4.6662616426371445e-01  5.6635235405612372e-01 5.9147907656463761e-01 4.6665047268558951e-01  5.6637118408468279e-01 5.9136071021515602e-01 4.6677324107796880e-01  5.6712269293012707e-01 5.8650010524760887e-01 4.7224985017256854e-01  5.6830100166148845e-01 5.7827400779825266e-01 4.8165676251397455e-01  5.7216471671807156e-01 4.9482523428267844e-01 5.6111278401301679e-01  5.3980151439200275e-01 3.4576572768050240e-01 5.7330689956956382e-01  5.5424744514104007e-01 3.8795954653916243e-01 5.9392435829496693e-01  5.4547047497092149e-01 3.4793647719703003e-01 5.9544870199205369e-01  5.4406725554942470e-01 3.4083263528194707e-01 5.9511719145943409e-01  5.4291464195362227e-01 3.2852907666045889e-01 5.9895995913491462e-01  5.4507112882827902e-01 3.2062990885479320e-01 6.1166139773989214e-01  5.4694892372347370e-01 3.3828664383179846e-01 6.0597107518491000e-01  5.4645189793757332e-01 3.3284125682165189e-01 6.0806907035232494e-01  5.4673195298295463e-01 3.3295464522211399e-01 6.0897608061609010e-01  5.4794474542140970e-01 3.4327852319821928e-01 6.0582244620237358e-01  5.5179902724404017e-01 3.4371747613885528e-01 6.1826699170480870e-01  5.5007730938601584e-01 3.2838163086539390e-01 6.2297037497139973e-01  5.5247767786906909e-01 3.4700992882867882e-01 6.1816643572490837e-01  5.5243087876991492e-01 3.4934609720840920e-01 6.1642384566378083e-01  5.5309476535902791e-01 3.5489491362528308e-01 6.1459148404548880e-01  5.5309055674454932e-01 3.5488382885368863e-01 6.1458690257935544e-01  5.5244361438930467e-01 3.5276680042682795e-01 6.1415539380387874e-01  5.5203203839450909e-01 3.6073643357929341e-01 6.0763905211912395e-01  5.5109938595558172e-01 3.6677003096510585e-01 6.0103131390342390e-01  5.4999402290593313e-01 3.7043178303756041e-01 5.9514450758622484e-01  5.4965453706931178e-01 3.7200325119262373e-01 5.9291032869766380e-01  5.4968486046762888e-01 3.7260076299826722e-01 5.9254746015707482e-01  5.5143155372817532e-01 3.7027399246264464e-01 5.9959838698860835e-01  5.5227068490695763e-01 3.6490575359534999e-01 6.0569317128714539e-01  5.4979356722197348e-01 3.2397230986457370e-01 6.2405503057763423e-01  5.4512868097757794e-01 3.0774664837417287e-01 6.1898967394698778e-01  5.4220751892632879e-01 2.9858065559009878e-01 6.1468517251310828e-01  5.3513352921112067e-01 2.9808414601386302e-01 5.8927052512319522e-01  5.3560112821154648e-01 2.9898251034902540e-01 5.9048390646468052e-01  5.3958493855131895e-01 2.9687526318088642e-01 6.0646258046286117e-01  5.3846317712653102e-01 2.9828511992401935e-01 6.0151889367397660e-01  5.3658446150770700e-01 3.1396542892601526e-01 5.8478038204315830e-01  5.4241434411777834e-01 3.5357988222635001e-01 5.8001911777607862e-01  5.4775536618743592e-01 3.8751502547051347e-01 5.7500757603127872e-01  5.4665306188273233e-01 3.8363494827108885e-01 5.7405326603707485e-01  5.4296464809305678e-01 3.7196645831031622e-01 5.6949512810913994e-01  5.4014878403788846e-01 3.5812394818746057e-01 5.6943489308416995e-01  5.4325059288577915e-01 3.5249391692852644e-01 5.8482552290818490e-01  5.4492050595925401e-01 3.5725690477071853e-01 5.8516705675306124e-01  5.3628217815874890e-01 3.3893562361948310e-01 5.6433823187626442e-01  5.2806314571057233e-01 3.0847792571037014e-01 5.5219514672511694e-01  5.2485881717229543e-01 2.7488437446289782e-01 5.6108784496513775e-01  5.3014042481296075e-01 2.4609502964318719e-01 5.9926145133908459e-01  5.4761103869613947e-01 3.2310617041492651e-01 6.1615674557119759e-01  5.6894446229022577e-01 5.2271995458543496e-01 5.2915145504029659e-01  5.6920206059308054e-01 5.5422483859909988e-01 5.0334457351256945e-01  5.6725493767436785e-01 5.8405519618035839e-01 4.7439972481500708e-01  5.6636403796375634e-01 5.9139972941509333e-01 4.6672759801241864e-01  5.6635208269139015e-01 5.9148054434496355e-01 4.6664808517306938e-01  5.6635141505672848e-01 5.9148471252573998e-01 4.6664410311236859e-01  5.6634956731325858e-01 5.9149601481920400e-01 4.6663332697365006e-01  5.6634821119702228e-01 5.9150396563324192e-01 4.6662577057907861e-01  5.6634798793525720e-01 5.9150508819742342e-01 4.6662469273192314e-01  5.6634798330904257e-01 5.9150510532346923e-01 4.6662467478825503e-01  5.6634798298858602e-01 5.9150510633000142e-01 4.6662467365469718e-01  5.6634798293558231e-01 5.9150510647671217e-01 4.6662467347834807e-01  5.6634798289412702e-01 5.9150510658250655e-01 4.6662467334524704e-01  5.6634798289451371e-01 5.9150510658209798e-01 4.6662467334619712e-01  5.6634798288483656e-01 5.9150510660203104e-01 4.6662467331756163e-01  5.6634798288409527e-01 5.9150510660315703e-01 4.6662467331555779e-01  5.6634798288405996e-01 5.9150510660320144e-01 4.6662467331546609e-01  5.6634798288497479e-01 5.9150510660169286e-01 4.6662467331799568e-01  5.6634798288406574e-01 5.9150510660319167e-01 4.6662467331548324e-01  5.6634798288405486e-01 5.9150510660320543e-01 4.6662467331545460e-01  5.6634798288405253e-01 5.9150510660320743e-01 4.6662467331544982e-01  5.6634798288405230e-01 5.9150510660320799e-01 4.6662467331544921e-01  5.6634798288405241e-01 5.9150510660320776e-01 4.6662467331544871e-01  5.6634798288405264e-01 5.9150510660320821e-01 4.6662467331544916e-01  5.6634798288405253e-01 5.9150510660320799e-01 4.6662467331544916e-01  5.6634798288405253e-01 5.9150510660320810e-01 4.6662467331544899e-01  5.6634798288405241e-01 5.9150510660320776e-01 4.6662467331544871e-01  5.6634798288405241e-01 5.9150510660320776e-01 4.6662467331544843e-01  5.6634798288405241e-01 5.9150510660320799e-01 4.6662467331544849e-01  5.6634798288405241e-01 5.9150510660320776e-01 4.6662467331544855e-01  5.6634798288405253e-01 5.9150510660320821e-01 4.6662467331544866e-01  5.6634798288405253e-01 5.9150510660320799e-01 4.6662467331544910e-01  5.6634798288405297e-01 5.9150510660320799e-01 4.6662467331544938e-01  5.6634798288405286e-01 5.9150510660320788e-01 4.6662467331544966e-01  5.6634798288405275e-01 5.9150510660320776e-01 4.6662467331545004e-01  5.6634798288405264e-01 5.9150510660320765e-01 4.6662467331545060e-01  5.6634798288405319e-01 5.9150510660320721e-01 4.6662467331545171e-01  5.6634798288405375e-01 5.9150510660320665e-01 4.6662467331545243e-01  5.6634798288405463e-01 5.9150510660320610e-01 4.6662467331545382e-01  5.6634798288405552e-01 5.9150510660320510e-01 4.6662467331545582e-01  5.6634798288405663e-01 5.9150510660320388e-01 4.6662467331545870e-01  5.6634798288405785e-01 5.9150510660320277e-01 4.6662467331546215e-01  5.6634798288405941e-01 5.9150510660320110e-01 4.6662467331546659e-01  5.6634798288406141e-01 5.9150510660319855e-01 4.6662467331547197e-01  5.6634798288406385e-01 5.9150510660319533e-01 4.6662467331547930e-01  5.6634798288406785e-01 5.9150510660319089e-01 4.6662467331548818e-01  5.6634798288407162e-01 5.9150510660318578e-01 4.6662467331549806e-01  5.6634798288408061e-01 5.9150510660317368e-01 4.6662467331552127e-01  5.6634798288409716e-01 5.9150510660315003e-01 4.6662467331556490e-01  5.6634798288412935e-01 5.9150510660310140e-01 4.6662467331565194e-01  5.6634798288432153e-01 5.9150510660278588e-01 4.6662467331618390e-01  5.6634798288449828e-01 5.9150510660247479e-01 4.6662467331668228e-01  5.6634798288477262e-01 5.9150510660196576e-01 4.6662467331746887e-01  5.6634798288520316e-01 5.9150510660112765e-01 4.6662467331872182e-01  5.6634798288587451e-01 5.9150510659976019e-01 4.6662467332070490e-01  5.6634798288690991e-01 5.9150510659755628e-01 4.6662467332381113e-01  5.6634798288848676e-01 5.9150510659405575e-01 4.6662467332861501e-01  5.6634798289085608e-01 5.9150510658858046e-01 4.6662467333594382e-01  5.6634798289439270e-01 5.9150510658007294e-01 4.6662467334705726e-01  5.6634798289974209e-01 5.9150510656664834e-01 4.6662467336416119e-01  5.6634798290742916e-01 5.9150510654662336e-01 4.6662467338913299e-01  5.6634798291840527e-01 5.9150510651686417e-01 4.6662467342542513e-01  5.6634798295471145e-01 5.9150510641185150e-01 4.6662467354914083e-01  5.6634798299390388e-01 5.9150510629235686e-01 4.6662467368620081e-01  5.6634798305571865e-01 5.9150510609655271e-01 4.6662467390668072e-01  5.6634798315096435e-01 5.9150510578258642e-01 4.6662467425375165e-01  5.6634798329279457e-01 5.9150510529693112e-01 4.6662467478165587e-01  5.6634798349658388e-01 5.9150510457298022e-01 4.6662467555651166e-01  5.6634798378198092e-01 5.9150510352347208e-01 4.6662467666443513e-01  5.6634798443745360e-01 5.9150510103344922e-01 4.6662467926136536e-01  5.6634798462809044e-01 5.9150510028721981e-01 4.6662468003170515e-01  5.6634798468251568e-01 5.9150510007784896e-01 4.6662468024953441e-01  5.6634798465678549e-01 5.9150510018239200e-01 4.6662468014364555e-01  5.6634798455039892e-01 5.9150510061192074e-01 4.6662467970581567e-01  5.6634798440608969e-01 5.9150510119380662e-01 4.6662467911227529e-01  5.6634798427080990e-01 5.9150510173986748e-01 4.6662467855547191e-01  5.6634798433757882e-01 5.9150510146032420e-01 4.6662467883732001e-01  5.6634798485351734e-01 5.9150509930212114e-01 4.6662468101438942e-01  5.6634798601250180e-01 5.9150509433480603e-01 4.6662468599197660e-01  5.6634798825700994e-01 5.9150508441333749e-01 4.6662469585674105e-01  5.6634799251035717e-01 5.9150506492509747e-01 4.6662471507772124e-01  5.6634800043872546e-01 5.9150502724487053e-01 4.6662475198195785e-01  5.6634801540395785e-01 5.9150495346112475e-01 4.6662482384587634e-01  5.6634804450452991e-01 5.9150480482470158e-01 4.6662496807807791e-01  5.6634810638118194e-01 5.9150447777861126e-01 4.6662528487828614e-01  5.6634861194878139e-01 5.9150166254101733e-01 4.6662801746386867e-01  5.6634902658704067e-01 5.9149926402991471e-01 4.6663035941952252e-01  5.6634963064199306e-01 5.9149568783738204e-01 4.6663387521766475e-01  5.6635045385997895e-01 5.9149072997152219e-01 4.6663878673674392e-01  5.6635144755114886e-01 5.9148466877034289e-01 4.6664483814470686e-01  5.6635330493101965e-01 5.9147315064535466e-01 4.6665650634216094e-01  5.6635579126787816e-01 5.9145760015819993e-01 4.6667243589053603e-01  5.6636067531168111e-01 5.9142692967409116e-01 4.6670413240036795e-01  5.6639291783452328e-01 5.9122332441033632e-01 4.6691863784667276e-01  5.6641986325167915e-01 5.9105259146844891e-01 4.6710227762861628e-01  5.6645808068494119e-01 5.9081001683994561e-01 4.6736701160505517e-01  5.6651320389998339e-01 5.9045939461068486e-01 4.6775463726695704e-01  5.6659274970831386e-01 5.8995157179087221e-01 4.6832249606183679e-01  5.6670627356175685e-01 5.8922233405280966e-01 4.6914563698385769e-01  5.6686894657680842e-01 5.8816736742402598e-01 4.7034506001246090e-01  5.6741295958073890e-01 5.8456754539453870e-01 4.7446313395712547e-01  5.6766750084269135e-01 5.8283829400355258e-01 4.7644556948454475e-01  5.6791315521813079e-01 5.8112425873150464e-01 4.7840906775534259e-01  5.6814011246607488e-01 5.7948698481927174e-01 4.8027918644961165e-01  5.6850311786843788e-01 5.7662401639972216e-01 4.8350791713572999e-01  5.6887974049791712e-01 5.7337364437689786e-01 4.8711567928105232e-01  5.6937925460288275e-01 5.6870581859547931e-01 4.9221379520754066e-01  5.6996810755282745e-01 5.6254064702161843e-01 4.9879745699333294e-01  5.7059796394309625e-01 5.5485183232481261e-01 5.0677954370142320e-01  5.7121652700284875e-01 5.4553775774476521e-01 5.1612219640278711e-01  5.7175533224877806e-01 5.3457235037561113e-01 5.2667915602122561e-01  5.7213814524082640e-01 5.2207573446107847e-01 5.3815145707897949e-01  5.7228918006377083e-01 5.0841444013993553e-01 5.5002187206347330e-01  5.7160433638377750e-01 4.7807266349322797e-01 5.7366581640190417e-01  5.7042328446923840e-01 4.5757716933735271e-01 5.8751731087292924e-01  5.6856457402413474e-01 4.3502525611752035e-01 6.0088548559791144e-01  5.6595436873443317e-01 4.1126927245149791e-01 6.1258985498475049e-01  5.6264862078346189e-01 3.8747186464487104e-01 6.2159513603475069e-01  5.5876292471740152e-01 3.6482912865475758e-01 6.2708184295488589e-01  5.5449083435913371e-01 3.4446932751871157e-01 6.2865298452181351e-01  5.5010666673991704e-01 3.2746690583123866e-01 6.2639704654849404e-01  5.4593503370646324e-01 3.1469017855535636e-01 6.2093359553162430e-01  5.4226298301191889e-01 3.0666506517350706e-01 6.1314963646448883e-01  5.3935488313551616e-01 3.0355443424685730e-01 6.0421189863306968e-01  5.3740926634540609e-01 3.0519340674939294e-01 5.9526832130108320e-01  5.3651026380919420e-01 3.1115291318169697e-01 5.8713244477948900e-01  5.3671876580842237e-01 3.2062701904162427e-01 5.8070293081016544e-01  5.3787054803873868e-01 3.3254460538437691e-01 5.7606203866273920e-01  5.4210716968856343e-01 3.5819949896865805e-01 5.7238047296314898e-01  5.4461877862094310e-01 3.6947053425309773e-01 5.7290030521465118e-01  5.4713229961802046e-01 3.7899780816280032e-01 5.7458807018806135e-01  5.4946431996906109e-01 3.8624232659445257e-01 5.7726232814366940e-01  5.5144116788728792e-01 3.9089471850838287e-01 5.8066684382442646e-01  5.5295904185855915e-01 3.9288839915639251e-01 5.8459972029652474e-01  5.5392366706769980e-01 3.9209214272891496e-01 5.8893722027638895e-01  5.5371249449769500e-01 3.8158314513143932e-01 5.9776693420097693e-01  5.5275113250078733e-01 3.7562098374217318e-01 5.9958408321587042e-01  5.5154757120664610e-01 3.6989952248619690e-01 6.0018456926355512e-01  5.5024407086076987e-01 3.6459379450404988e-01 5.9992568810990821e-01  5.4895476724650805e-01 3.5984566203053453e-01 5.9911451408200100e-01  5.4776960053510937e-01 3.5574975043583812e-01 5.9802911287230642e-01  5.4675537311155031e-01 3.5234666580314961e-01 5.9692284845394139e-01  5.4596314801828993e-01 3.4967271095827868e-01 5.9600296059714331e-01  5.4516944360583475e-01 3.4672119918062083e-01 5.9519172333815262e-01  5.4480008530864810e-01 3.4505567366136053e-01 5.9497744926667406e-01  5.4444111363968595e-01 3.4317156386501513e-01 5.9493009953475984e-01  5.4373778277580287e-01 3.3835968091282220e-01 5.9554871008799926e-01  5.4352045238434488e-01 3.3639565115211789e-01 5.9605099682673579e-01  5.4335858410226523e-01 3.3469219957210683e-01 5.9658304948492824e-01  5.4322833739754328e-01 3.3318451680116684e-01 5.9710041356634935e-01  5.4311753861234424e-01 3.3183604162878216e-01 5.9758127691689755e-01  5.4302620555657155e-01 3.3067565562011114e-01 5.9800442319433655e-01  5.4295471468625200e-01 3.2963516952539268e-01 5.9841265136228372e-01  5.4294632496567141e-01 3.2747072428068602e-01 5.9971900935770761e-01  5.4303535881586995e-01 3.2674082738706756e-01 6.0047473554706599e-01  5.4317111119544814e-01 3.2615115350469398e-01 6.0131063667850881e-01  5.4334502664293916e-01 3.2562581155006376e-01 6.0224684789099403e-01  5.4354744206058181e-01 3.2511997904445400e-01 6.0327885140317339e-01  5.4376805954986807e-01 3.2460768815656676e-01 6.0438682888536155e-01  5.4399620987865349e-01 3.2407363603641581e-01 6.0554225721420107e-01  5.4422105478269434e-01 3.2351370999469009e-01 6.0670834172500843e-01  5.4443321595088479e-01 3.2294274267127748e-01 6.0784058471815672e-01  5.4462364891549686e-01 3.2237700619285709e-01 6.0889490973783433e-01  5.4478608240213844e-01 3.2184839963699002e-01 6.0982658644478405e-01  5.4491431121375322e-01 3.2138130288777667e-01 6.1059651577462348e-01  5.4500497441210782e-01 3.2100708017387708e-01 6.1117107073900157e-01  5.4505825524899043e-01 3.2076341797841418e-01 6.1152496214102503e-01  5.4510744140718215e-01 3.2100624845089731e-01 6.1153250115909252e-01  5.4522007402810346e-01 3.2208464010762211e-01 6.1119196298297229e-01  5.4540973615750032e-01 3.2385386633126212e-01 6.1064599443674150e-01  5.4566973345206460e-01 3.2624061291676215e-01 6.0991554151000860e-01  5.4600352639275895e-01 3.2919982100408390e-01 6.0903670021377565e-01  5.4671004845954330e-01 3.3514226865576974e-01 6.0735727597277422e-01  5.4665512885330203e-01 3.3384118091895365e-01 6.0808191850717508e-01  5.4667833536638966e-01 3.3338128100703779e-01 6.0848721074330936e-01  5.4670529874214990e-01 3.3314714317324279e-01 6.0874675103972431e-01  5.4672348316293895e-01 3.3301687886338527e-01 6.0890242752829504e-01  5.4672176079299528e-01 3.3302933231018050e-01 6.0888759429551431e-01  5.4669603295163016e-01 3.3319382285282861e-01 6.0868131600438624e-01  5.4664162985018339e-01 3.3337438211882597e-01 6.0836303144925064e-01  5.4737179905900391e-01 3.4271399571838146e-01 6.0430138954714330e-01  5.4770352361027763e-01 3.4595981124618824e-01 6.0313654538795269e-01  5.4796837415570931e-01 3.4844691117598126e-01 6.0227163756846058e-01  5.4816319221405840e-01 3.5019302292331844e-01 6.0169142800821185e-01  5.4828520058143426e-01 3.5116349169804673e-01 6.0141624484042788e-01  5.4833302527909089e-01 3.5133029014820855e-01 6.0146347669397815e-01  5.4831146627618788e-01 3.5067983833094285e-01 6.0185745723809470e-01  5.4823116199778710e-01 3.4920774177116604e-01 6.0263218466009316e-01  5.4810426997604755e-01 3.4686982065955707e-01 6.0385174097777083e-01  5.4785081175766925e-01 3.3935619507210396e-01 6.0822020935080967e-01  5.4783020632302404e-01 3.3622498519801441e-01 6.1029749732502747e-01  5.4786257275164740e-01 3.3348324546342367e-01 6.1226968083490774e-01  5.4794941998750690e-01 3.3113176858124899e-01 6.1414568472402087e-01  5.4808614618742124e-01 3.2918043553570958e-01 6.1590752716584551e-01  5.4827200167122236e-01 3.2766619881032388e-01 6.1753154845856906e-01  5.4850074773383972e-01 3.2660613580894632e-01 6.1898877316890466e-01  5.4876382802047574e-01 3.2600364826823219e-01 6.2025121954362428e-01  5.4904999341925564e-01 3.2584484954373005e-01 6.2129303041551664e-01  5.4934595838239542e-01 3.2609732297707239e-01 6.2209337325789804e-01  5.4963463252599853e-01 3.2670391925440184e-01 6.2263496752174752e-01  5.4989404827865807e-01 3.2756405062815941e-01 6.2291301771858287e-01  5.5025508142120982e-01 3.2962976042362840e-01 6.2272485533075095e-01  5.5050221872612237e-01 3.3169451276458695e-01 6.2216105204728533e-01  5.5080257899207163e-01 3.3448218014058823e-01 6.2128035264150550e-01  5.5118291843361933e-01 3.3814445001931082e-01 6.2005519523133312e-01  5.5222848886552323e-01 3.4620299857754250e-01 6.1793536919837311e-01  5.5238603269268116e-01 3.4681977528988289e-01 6.1800987980969291e-01  5.5245413920333009e-01 3.4697533559250171e-01 6.1811663954162277e-01  5.5245555618989106e-01 3.4697829725991997e-01 6.1811903754503317e-01  5.5240746636074622e-01 3.4695145494030633e-01 6.1798738053617042e-01  5.5235768391449347e-01 3.4712700924820350e-01 6.1771250215103013e-01  5.5235523827514998e-01 3.4786222886454082e-01 6.1720344597078702e-01  5.5258444592456013e-01 3.5122136384529790e-01 6.1560804140995407e-01  5.5275502900264017e-01 3.5275325813811248e-01 6.1506692543893682e-01  5.5292272085248573e-01 3.5389926021890006e-01 6.1477383670180208e-01  5.5304728071927678e-01 3.5463063422359059e-01 6.1463500526514891e-01  5.5308981063042240e-01 3.5487403283756780e-01 6.1459143903439417e-01  5.5305288224816518e-01 3.5469947353311310e-01 6.1460412812559073e-01  5.5294835330159242e-01 3.5421238774400621e-01 6.1463457199801852e-01  5.5276416320123367e-01 3.5352126870389516e-01 6.1457234054989429e-01  5.5223826440847856e-01 3.5472670725835082e-01 6.1224924465617725e-01  5.5215843187751057e-01 3.5649190631228334e-01 6.1083675737289767e-01  5.5211153185759254e-01 3.5803921678535833e-01 6.0966583696723320e-01  5.5207626255207320e-01 3.5931499983429988e-01 6.0871152318029553e-01  5.5204913177158799e-01 3.6025552444381448e-01 6.0800672764674391e-01  5.5200594570026562e-01 3.6107231937745193e-01 6.0734817670770080e-01  5.5195753785024371e-01 3.6155753762621756e-01 6.0690320802538544e-01  5.5189403256