<?xml version="1.0"?>
<VTKFile type="UnstructuredGrid"  version="0.1"  >
<UnstructuredGrid>
<Piece  NumberOfPoints="7288" NumberOfCells="14083">
<Points>
<DataArray  type="Float64"  NumberOfComponents="3"  format="ascii">239.8 188 0  250.2 180 0  258.2 172.4 0  257 169.4 0  259.9 157.4 0  258.7 150.3 0  261 143.5 0  251.7 144.4 0  250 138.7 0  247 138.1 0  245.2 130.8 0  247.3 126.4 0  242.7 118.6 0  231.2 107.7 0  226 102.4 0  226.5 93.90000000000001 0  224.5 91.19999999999999 0  224.5 84.09999999999999 0  234.5 73.80000000000001 0  228.4 68.90000000000001 0  230 70 0  233.4 68 0  222.7 61.5 0  220.6 45.5 0  223.4 49.40000000000001 0  224 47 0  221.8 43.09999999999999 0  221 38.40000000000001 0  219.5 38.5 0  219.4 41.69999999999999 0  217.1 36.90000000000001 0  209.7 36 0  209.5 31.69999999999999 0  205.1 29.90000000000001 0  201.5 30.40000000000001 0  199.2 38.69999999999999 0  201.8 41.40000000000001 0  194.8 53.80000000000001 0  196.1 57.69999999999999 0  193 59 0  191.4 66.09999999999999 0  193.5 66.5 0  194.1 64.40000000000001 0  195.6 64.69999999999999 0  195.4 72.40000000000001 0  199.5 77.30000000000001 0  197.7 86.90000000000001 0  200.6 87.5 0  201.5 91 0  198 94.80000000000001 0  198.6 100 0  197.3 105.4 0  198 109.5 0  197 112.7 0  198.3 116.1 0  201.3 122 0  207.2 121 0  208.1 126.7 0  205.6 127.9 0  209.1 134.9 0  210.9 144.4 0  210.1 147.9 0  213 148.4 0  215.4 149.3 0  215.1 152.8 0  219.9 159.7 0  220.3 163.2 0  218.7 164.9 0  219.9 166.7 0  221.9 169.7 0  220 170.3 0  224.9 174.7 0  229.8 177.4 0  229.7 181 0  228 172.9 0  239 178 0  240.4 180 0  239 181.5 0  241.2 185.9 0  242.95 187.99 0  240.5875 187.9975 0  241.375 187.995 0  242.1625 187.9925 0  243.6090909090879 187.2636363636397 0  244.2681818181765 186.5372727272785 0  244.9272727272692 185.810909090913 0  245.5863636363531 185.0845454545571 0  246.245454545445 184.3581818181923 0  246.9045454545351 183.6318181818295 0  247.5636363636303 182.9054545454612 0  248.2227272727197 182.1790909090992 0  248.8818181818179 181.4527272727275 0  249.5409090909066 180.7263636363664 0  250.8666666666961 179.3666666666387 0  251.5333333334033 178.7333333332668 0  252.2000000000994 178.0999999999055 0  252.8666666668011 177.466666666539 0  253.5333333335083 176.8333333331671 0  254.2000000002044 176.1999999998058 0  254.8666666669005 175.5666666664445 0  255.5333333336077 174.9333333330727 0  256.2000000002685 174.2999999997449 0  256.8666666668457 173.6666666664966 0  257.5333333334283 173.033333333243 0  257.9000000000077 171.6500000000191 0  257.6000000000015 170.9000000000038 0  257.2999999999954 170.1499999999885 0  257.2230769230778 168.4769230769195 0  257.4461538461543 167.5538461538442 0  257.6692307692309 166.6307692307688 0  257.8923076923074 165.7076923076935 0  258.115384615384 164.7846153846181 0  258.3384615384605 163.8615384615427 0  258.5615384615395 162.9384615384572 0  258.784615384616 162.0153846153819 0  259.0076923076926 161.0923076923065 0  259.2307692307691 160.1692307692311 0  259.4538461538457 159.2461538461558 0  259.6769230769222 158.3230769230804 0  259.750000000001 156.512500000006 0  259.6000000000014 155.6250000000082 0  259.4500000000029 154.7375000000176 0  259.3000000000018 153.8500000000108 0  259.1500000000007 152.962500000004 0  259.0000000000004 152.0750000000026 0  258.849999999999 151.187499999994 0  258.9875000000052 149.4499999999846 0  259.275000000002 148.5999999999941 0  259.5624999999954 147.7500000000135 0  259.849999999995 146.900000000015 0  260.1374999999945 146.0500000000164 0  260.4249999999913 145.2000000000259 0  260.7124999999948 144.3500000000154 0  260.0700000000398 143.5899999999961 0  259.1400000000573 143.6799999999944 0  258.2100000000351 143.7699999999966 0  257.2800000000262 143.8599999999975 0  256.350000000011 143.9499999999989 0  255.4199999999881 144.0400000000011 0  254.4899999999726 144.1300000000026 0  253.5599999999944 144.2200000000005 0  252.6300000000009 144.3099999999999 0  251.4166666666658 143.4499999999971 0  251.1333333333388 142.5000000000182 0  250.8500000000015 141.5500000000051 0  250.5666666666612 140.5999999999818 0  250.2833333333342 139.6500000000029 0  249.2500000000005 138.5500000000001 0  248.5000000000011 138.4000000000002 0  247.7499999999995 138.2499999999999 0  246.7750000000005 137.1875000000023 0  246.5500000000021 136.2750000000085 0  246.3250000000036 135.3625000000147 0  246.1000000000042 134.450000000017 0  245.8750000000022 133.5375000000088 0  245.650000000003 132.6250000000124 0  245.4250000000046 131.7125000000187 0  245.619999999996 129.9200000000084 0  246.0399999999992 129.0400000000017 0  246.4599999999987 128.1600000000028 0  246.8800000000001 127.2799999999997 0  246.8399999999988 125.6199999999979 0  246.3799999999984 124.8399999999973 0  245.9199999999991 124.0599999999985 0  245.4600000000036 123.2800000000062 0  245.0000000000049 122.5000000000082 0  244.5400000000036 121.7200000000062 0  244.0800000000033 120.9400000000056 0  243.6200000000016 120.1600000000027 0  243.1600000000012 119.3800000000021 0  241.9812499999996 117.9187499999997 0  241.2625000000007 117.2375000000007 0  240.5437500000017 116.5562500000017 0  239.8250000000041 115.875000000004 0  239.1062500000066 115.1937500000063 0  238.3875000000076 114.5125000000072 0  237.6687500000087 113.8312500000082 0  236.9500000000083 113.1500000000079 0  236.231250000008 112.4687500000076 0  235.512500000009 111.7875000000085 0  234.7937500000045 111.1062500000043 0  234.0750000000042 110.4250000000039 0  233.3562500000066 109.7437500000062 0  232.6375000000021 109.062500000002 0  231.9187500000031 108.381250000003 0  230.5500000000004 107.0375000000004 0  229.9000000000021 106.3750000000021 0  229.2500000000038 105.7125000000039 0  228.6000000000041 105.0500000000042 0  227.9500000000018 104.3875000000018 0  227.2999999999952 103.7249999999951 0  226.6500000000024 103.0625000000024 0  226.0555555555555 101.4555555555556 0  226.1111111111111 100.5111111111111 0  226.1666666666667 99.56666666666668 0  226.2222222222222 98.62222222222223 0  226.2777777777778 97.67777777777778 0  226.3333333333333 96.73333333333335 0  226.3888888888889 95.78888888888889 0  226.4444444444445 94.84444444444446 0  226 93.22499999999999 0  225.5000000000026 92.55000000000358 0  225.0000000000026 91.87500000000358 0  224.5 90.31250000000068 0  224.5 89.4250000000097 0  224.5 88.53750000001317 0  224.5 87.65000000001388 0  224.5 86.76250000001457 0  224.5 85.87500000001248 0  224.5 84.9874999999993 0  225.1666666666659 83.41333333333409 0  225.8333333333319 82.72666666666818 0  226.4999999999978 82.04000000000228 0  227.1666666666649 81.35333333333514 0  227.8333333333301 80.66666666667 0  228.4999999999942 79.980000000006 0  229.1666666666601 79.2933333333401 0  229.8333333333316 78.60666666666847 0  230.4999999999975 77.92000000000257 0  231.1666666666644 77.23333333333572 0  231.8333333333295 76.54666666667057 0  232.4999999999972 75.86000000000287 0  233.1666666666681 75.17333333333181 0  233.8333333333368 74.48666666666306 0  233.7499999999995 73.16666666666629 0  233.0000000000018 72.53333333333488 0  232.2500000000014 71.90000000000116 0  231.5000000000009 71.26666666666743 0  230.7500000000005 70.63333333333372 0  229.233333333333 68.75000000000006 0  230.0666666666665 68.60000000000004 0  230.8999999999995 68.45000000000009 0  231.7333333333325 68.30000000000015 0  232.566666666667 68.14999999999995 0  232.5499999999897 68.50000000000607 0  231.7 69 0  230.8500000000103 69.49999999999393 0  227.8300000000008 68.16000000000106 0  227.2600000000064 67.42000000000837 0  226.6900000000077 66.68000000001001 0  226.1200000000024 65.94000000000314 0  225.5500000000108 65.20000000001409 0  224.9800000000098 64.46000000001268 0  224.4100000000007 63.72000000000098 0  223.8399999999971 62.97999999999621 0  223.2699999999993 62.23999999999915 0  222.753846153846 60.56923076923239 0  222.8076923076921 59.63846153846478 0  222.8615384615381 58.70769230769827 0  222.9153846153842 57.77692307693071 0  222.9692307692302 56.84615384616315 0  223.0230769230761 55.91538461539836 0  223.0769230769224 54.98461538462665 0  223.1307692307688 54.05384615385345 0  223.184615384615 53.12307692308312 0  223.2384615384611 52.19230769231556 0  223.2923076923071 51.26153846154906 0  223.3461538461533 50.33076923077847 0  222.8400000000024 48.62000000000327 0  222.2800000000047 47.84000000000661 0  221.7200000000005 47.06000000000071 0  221.1600000000003 46.28000000000039 0  221.4500000000116 45.87500000000512 0  222.3 46.25 0  223.1499999999884 46.62499999999488 0  223.5600000000055 46.22000000000981 0  223.1199999999987 45.43999999999767 0  222.6800000000061 44.66000000001075 0  222.2399999999969 43.8799999999944 0  221.6400000000004 42.16000000000253 0  221.4800000000009 41.22000000000548 0  221.3200000000014 40.28000000000801 0  221.1600000000009 39.34000000000556 0  220.25 38.45 0  219.4749999999999 39.30000000000165 0  219.45 40.09999999999999 0  219.425 40.90000000000112 0  219.0166666666641 40.89999999999463 0  218.6333333333375 40.10000000000875 0  218.2500000000016 39.30000000000339 0  217.8666666666635 38.49999999999351 0  217.483333333337 37.70000000000762 0  216.1750000000165 36.78750000000201 0  215.2500000000275 36.67500000000335 0  214.3250000000385 36.56250000000469 0  213.4000000000277 36.45000000000337 0  212.4750000000059 36.33750000000072 0  211.5499999999838 36.22499999999803 0  210.6249999999835 36.11249999999799 0  209.6600000000001 35.14000000000318 0  209.6200000000001 34.28000000000268 0  209.5800000000001 33.42000000000284 0  209.5399999999998 32.55999999999681 0  208.6200000000117 31.34000000000476 0  207.7400000000138 30.98000000000564 0  206.8600000000162 30.62000000000662 0  205.9800000000174 30.26000000000711 0  204.2000000000054 30.02499999999925 0  203.2999999999946 30.15000000000076 0  202.3999999999945 30.27500000000076 0  201.2444444444438 31.32222222222468 0  200.9888888888895 32.24444444
[...]
<PointData  Vectors="f_12"> 
<DataArray  type="Float64"  Name="f_12"  NumberOfComponents="3" format="ascii">6.3338488434567319e-01 7.2542023863467719e-01 4.4546906699927513e-01  6.3511965207410603e-01 7.2003028715721829e-01 4.5490375939435201e-01  6.3699200671375500e-01 7.1375510860397540e-01 4.6563368312003478e-01  6.3767683532373742e-01 7.1115969459156536e-01 4.6994855185511175e-01  6.4153418619936853e-01 6.9520629298452263e-01 4.9579627375952012e-01  6.4329776686006512e-01 6.8647562501457637e-01 5.0937560080438005e-01  6.4385410823699585e-01 6.8376237683980756e-01 5.1356732921561421e-01  6.4523863513877799e-01 6.7385646825163625e-01 5.2820431286051694e-01  6.4700301664356485e-01 6.6055534640938607e-01 5.4749445270610353e-01  6.4765992173709963e-01 6.5460444024475994e-01 5.5589305583882298e-01  6.4942613788573800e-01 6.3573046508787179e-01 5.8185742754402447e-01  6.4982777711490558e-01 6.3043389726749421e-01 5.8894664035579569e-01  6.5015774284967898e-01 6.2488242686326589e-01 5.9625064319164878e-01  6.5052184320717155e-01 6.1704294725738318e-01 6.0638291737993710e-01  6.5060822436838373e-01 6.1500375106295435e-01 6.0898700402315042e-01  6.5063466595261821e-01 6.1449137145107413e-01 6.0963961080307216e-01  6.5063007544840712e-01 6.1468627211163729e-01 6.0939188142815670e-01  6.5059935861218265e-01 6.1566936326246258e-01 6.0814054203601053e-01  6.5056706683433241e-01 6.1657545999593677e-01 6.0698497831519838e-01  6.5054515491961373e-01 6.1719912701609403e-01 6.0618733750402065e-01  6.5055378420572785e-01 6.1695544707702243e-01 6.0649917002746478e-01  6.5055417881627520e-01 6.1694379189947457e-01 6.0651417198310908e-01  6.5043125248621725e-01 6.2024840253001146e-01 6.0227160358917520e-01  6.5021918911071852e-01 6.2532946710860904e-01 5.9568962945999604e-01  6.5027261737259123e-01 6.2412340122605259e-01 5.9725898285778034e-01  6.5020856987271669e-01 6.2557011748990154e-01 5.9537625134313943e-01  6.5020368790730998e-01 6.2567540365605356e-01 5.9523889160520116e-01  6.5019280638718790e-01 6.2591794504046372e-01 5.9492267756926798e-01  6.5019280883680541e-01 6.2591785467497130e-01 5.9492279419586025e-01  6.5019437530866120e-01 6.2587793312301820e-01 5.9497466849850311e-01  6.5016583536139516e-01 6.2648920297854427e-01 5.9417639751867524e-01  6.5012548290224004e-01 6.2732751624314309e-01 5.9307947742996991e-01  6.5009840466775759e-01 6.2788758096190556e-01 5.9234585616807811e-01  6.5009177477003166e-01 6.2802414223209035e-01 5.9216683686399119e-01  6.5009122466410507e-01 6.2803548455462255e-01 5.9215195975878088e-01  6.5011746055077435e-01 6.2749112345560121e-01 5.9286514186086425e-01  6.5015295489797487e-01 6.2674393922471505e-01 5.9384257044048028e-01  6.5030876750752098e-01 6.2333309770592882e-01 5.9828570816474058e-01  6.5035069370667098e-01 6.2235077656232851e-01 5.9955862933758963e-01  6.5037387469511154e-01 6.2180493669626180e-01 6.0026510622786811e-01  6.5043901939066606e-01 6.2020408368801827e-01 6.0233109443103738e-01  6.5043739376521614e-01 6.2024205204347316e-01 6.0228210169458440e-01  6.5039844163391469e-01 6.2120509183877570e-01 6.0103998600448760e-01  6.5041159082277167e-01 6.2087859365421771e-01 6.0146122818887082e-01  6.5046477488659693e-01 6.1953043321379575e-01 6.0319770032150999e-01  6.5052575643427835e-01 6.1789005598053293e-01 6.0530259038068357e-01  6.5058727082970536e-01 6.1618333927121638e-01 6.0748513783581082e-01  6.5059568892533737e-01 6.1592646520442917e-01 6.0781269818163863e-01  6.5062086429285837e-01 6.1515418502043084e-01 6.0879659977753031e-01  6.5063598656035659e-01 6.1467981546174044e-01 6.0940019296276082e-01  6.5063974070618769e-01 6.1452169831642234e-01 6.0960117948781489e-01  6.5063734603888435e-01 6.1452935601353120e-01 6.0959135326621305e-01  6.5062934993873101e-01 6.1471089125664657e-01 6.0936039397695663e-01  6.5062189291535966e-01 6.1489332600138458e-01 6.0912820293963654e-01  6.5061165820580169e-01 6.1514883963079114e-01 6.0880270524643776e-01  6.5058748112444453e-01 6.1574659677775145e-01 6.0804018415926875e-01  6.5050440710858448e-01 6.1769601589126888e-01 6.0554344463703069e-01  6.5026246468119642e-01 6.2307696561483961e-01 5.9859941673183026e-01  6.5021215663535259e-01 6.2415594613739123e-01 5.9719876090350588e-01  6.4992410060981076e-01 6.2925481239839420e-01 5.9051032907949286e-01  6.4914391781215619e-01 6.4058838967880816e-01 5.7535777431423085e-01  6.4899422714430099e-01 6.4249130236369767e-01 5.7277618012140941e-01  6.4885224355642035e-01 6.4396450730072663e-01 5.7075290504739995e-01  6.4834958788010810e-01 6.4903559444724024e-01 5.6374231405038877e-01  6.4763975214078018e-01 6.5577121115699133e-01 5.5432960420242272e-01  6.4538791977950249e-01 6.7274062082998098e-01 5.2983395884953577e-01  6.4390212215487752e-01 6.8243928326432479e-01 5.1541529240243988e-01  6.4345389224509153e-01 6.8525063964390931e-01 5.1118854473322284e-01  6.4314523742361673e-01 6.8703492387430243e-01 5.0847334322997384e-01  6.4251959133126901e-01 6.9042983586422324e-01 5.0325847296420911e-01  6.4270251519312038e-01 6.8954286861049963e-01 5.0464100403245749e-01  6.4145168183143630e-01 6.9567444231003106e-01 4.9507094727178791e-01  6.3874270468627159e-01 7.0726815870878035e-01 4.7642599751287829e-01  6.3841165343080375e-01 7.0869664075483640e-01 4.7411034521502465e-01  6.4070324073802254e-01 6.9884936435261724e-01 4.8998489023338759e-01  6.3670736222703594e-01 7.1441974764021587e-01 4.6440741538772901e-01  6.3499015069002529e-01 7.2021441601492908e-01 4.5450520518844684e-01  6.3434906998867358e-01 7.2232637579108661e-01 4.5086284055542658e-01  6.3356001885120505e-01 7.2487045434263664e-01 4.4643338311415548e-01  6.3345592583219434e-01 7.2520111464329651e-01 4.4585487252428702e-01  6.3339389478937125e-01 7.2539224296221050e-01 4.4551829071797250e-01  6.3341348120885166e-01 7.2533164578429465e-01 4.4562492623253480e-01  6.3343602610721550e-01 7.2526226651431247e-01 4.4574713872832139e-01  6.3350587816716808e-01 7.2504678459294547e-01 4.4612639048704800e-01  6.3359532677748354e-01 7.2477042174393547e-01 4.4661243924152566e-01  6.3371120850487817e-01 7.2441263844600312e-01 4.4724145303718121e-01  6.3384740277432983e-01 7.2399233181806055e-01 4.4797997357104469e-01  6.3400043086239477e-01 7.2351996902755111e-01 4.4880930936714875e-01  6.3416577900707960e-01 7.2300940350208431e-01 4.4970489965241145e-01  6.3434286695916664e-01 7.2246124915779741e-01 4.5066510472457499e-01  6.3452803984459982e-01 7.2188639923936571e-01 4.5167055418481322e-01  6.3471822198428185e-01 7.2129377925389560e-01 4.5270529260805881e-01  6.3491520042484029e-01 7.2067603217613529e-01 4.5378147833609878e-01  6.3531022127826398e-01 7.1942425979157421e-01 4.5595460915925173e-01  6.3549408338632984e-01 7.1883467171114535e-01 4.5697436005948983e-01  6.3567647758760237e-01 7.1824370499744028e-01 4.5799355025689503e-01  6.3585731627951481e-01 7.1765141621683481e-01 4.5901203641531435e-01  6.3603532216724878e-01 7.1706186841754571e-01 4.6002281357131680e-01  6.3620910805437092e-01 7.1647975857995572e-01 4.6101793123772172e-01  6.3637858286785076e-01 7.1590497359740801e-01 4.6199752234173108e-01  6.3654088320146196e-01 7.1534758391905551e-01 4.6294462909698497e-01  6.3669186012788093e-01 7.1482250631417044e-01 4.6383421691546800e-01  6.3682630965151277e-01 7.1434891212360530e-01 4.6463428529714151e-01  6.3693393539825260e-01 7.1396495919392722e-01 4.6528111466337246e-01  6.3705191520992055e-01 7.1353108602319348e-01 4.6600752425225361e-01  6.3718241705795176e-01 7.1303974103529644e-01 4.6682609573476419e-01  6.3737839245256600e-01 7.1229724678979467e-01 4.6806081070740324e-01  6.3806219590320323e-01 7.0968022870585046e-01 4.7239726103177537e-01  6.3840476244794642e-01 7.0835101585100813e-01 4.7458959937145728e-01  6.3873616067881744e-01 7.0704972591510817e-01 4.7672785074169999e-01  6.3906169330083062e-01 7.0575515314117931e-01 4.7884689975640732e-01  6.3938175061967195e-01 7.0446515145146427e-01 4.8095020836608354e-01  6.3969544500137998e-01 7.0318284048323720e-01 4.8303272985065260e-01  6.4000129835785013e-01 7.0191400573444951e-01 4.8508519853754389e-01  6.4029790395716979e-01 7.0066467591550496e-01 4.8709819103384649e-01  6.4058286440861900e-01 6.9944510421543538e-01 4.8905546914242332e-01  6.4085513227214608e-01 6.9826004278518672e-01 4.9094983977776324e-01  6.4111044235736814e-01 6.9713005217408097e-01 4.9274931478094708e-01  6.4134383533296602e-01 6.9607893557235068e-01 4.9441689186127885e-01  6.4171459543475340e-01 6.9435957871526321e-01 4.9712880117425523e-01  6.4192577492224467e-01 6.9335174743804873e-01 4.9870957824846007e-01  6.4214990977765429e-01 6.9226535171931824e-01 5.0040799650654866e-01  6.4237868598758385e-01 6.9113911815896034e-01 5.0216287441702201e-01  6.4260804518333647e-01 6.8999385143704672e-01 5.0394169765662322e-01  6.4283538785813410e-01 6.8884469130764558e-01 5.0572126089594316e-01  6.4306165244220315e-01 6.8768900734321914e-01 5.0750598823158521e-01  6.4348989092670250e-01 6.8550091743731900e-01 5.1087742541925230e-01  6.4362414538191959e-01 6.8482417913191096e-01 5.1191953407341517e-01  6.4371698090566365e-01 6.8436774646438703e-01 5.1262354586648706e-01  6.4378147445689549e-01 6.8406001925551685e-01 5.1309935473114188e-01  6.4382197984383216e-01 6.8387770341627152e-01 5.1338291457540464e-01  6.4384405115769272e-01 6.8378850894551491e-01 5.1352336571123447e-01  6.4385280815055645e-01 6.8376192263423596e-01 5.1356693362139993e-01  6.4385670938044448e-01 6.8373746307840710e-01 5.1360373805431792e-01  6.4387005589866564e-01 6.8362760594087757e-01 5.1376573570440109e-01  6.4390069625545832e-01 6.8339287187291020e-01 5.1411344664632241e-01  6.4395272485967558e-01 6.8300678110173996e-01 5.1468635304208410e-01  6.4403215930160429e-01 6.8243070397208550e-01 5.1554189816834062e-01  6.4414409530207228e-01 6.8163052426010939e-01 5.1673015624715557e-01  6.4429420769060319e-01 6.8056476894408380e-01 5.1831109087097504e-01  6.4449310992489484e-01 6.7915625966747384e-01 5.2039658004677980e-01  6.4476883282980546e-01 6.7720203734529494e-01 5.2328220247054558e-01  6.4578287500319020e-01 6.6993289254547284e-01 5.3394861074857580e-01  6.4615487419109918e-01 6.6718828582753820e-01 5.3794380904938810e-01  6.4646015739660279e-01 6.6487460218413741e-01 5.4129303832305720e-01  6.4670752375670226e-01 6.6294740339105085e-01 5.4406889722555485e-01  6.4689648687492207e-01 6.6143493241692852e-01 5.4623809692378578e-01  6.4706416637582831e-01 6.6002462977458654e-01 5.4824822454048083e-01  6.4719068485676934e-01 6.5890632530946847e-01 5.4983269629324727e-01  6.4737418514614919e-01 6.5724753367540156e-01 5.5217504395936223e-01  6.4803072304316978e-01 6.5106064343933823e-01 5.6085203556370788e-01  6.4829791971999495e-01 6.4840504477360428e-01 5.6454510767458921e-01  6.4852510462528201e-01 6.4606108979295396e-01 5.6778610935203044e-01  6.4872749812593467e-01 6.4389626376961318e-01 5.7076348738589155e-01  6.4891180210791999e-01 6.4185318963726234e-01 5.7355915809252400e-01  6.4908322680845931e-01 6.3988513012285275e-01 5.7623928933084290e-01  6.4924810298735802e-01 6.3792476211542459e-01 5.7889662099391592e-01  6.4957790557720596e-01 6.3379700725841648e-01 5.8445556367147800e-01  6.4967758187450153e-01 6.3248998356237329e-01 5.8620568215746960e-01  6.4974992260378972e-01 6.3151643333873542e-01 5.8750551920625305e-01  6.4980068576943240e-01 6.3081665364442896e-01 5.8843769964907600e-01  6.4984859909623505e-01 6.3012452113072348e-01 5.8935688635400252e-01  6.4988029595908192e-01 6.2963973931963735e-01 5.8999870688354561e-01  6.4991657906052747e-01 6.2906944896036809e-01 5.9075250437698468e-01  6.4995503908618768e-01 6.2844858621036304e-01 5.9157176728785055e-01  6.4999340949202011e-01 6.2781185376217929e-01 5.9241050243170124e-01  6.5003096367380042e-01 6.2717197377673928e-01 5.9325191259243626e-01  6.5006700934799400e-01 6.2654207310731558e-01 5.9407878476797549e-01  6.5010078834896090e-01 6.2593696611834793e-01 5.9487178153284903e-01  6.5013165530839556e-01 6.2537114815596095e-01 5.9561212022047794e-01  6.5018479346410185e-01 6.2436270677265016e-01 5.9692856224124036e-01  6.5021372873189176e-01 6.2379445093176966e-01 5.9766866984107780e-01  6.5024245808267622e-01 6.2321865102803697e-01 5.9841750934244553e-01  6.5027061202742209e-01 6.2264327821852916e-01 5.9916469614813017e-01  6.5029788265296218e-01 6.2207581928781175e-01 5.9990057509915906e-01  6.5032404652530607e-01 6.2152182584604065e-01 6.0061799986891573e-01  6.5034908963350668e-01 6.2098287190532320e-01 6.0131501719864200e-01  6.5037294947922031e-01 6.2046147922675510e-01 6.0198845507037513e-01  6.5039554964559765e-01 6.1996057114443459e-01 6.0263463624528379e-01  6.5041696029229801e-01 6.1947968241772089e-01 6.0325425372867381e-01  6.5043719639727537e-01 6.1901967173620576e-01 6.0384630114549576e-01  6.5045623546642983e-01 6.1858215328875721e-01 6.0440879352703514e-01  6.5047422507729258e-01 6.1816460800966921e-01 6.0494505463871839e-01  6.5049099985202674e-01 6.1777197507870585e-01 6.0544881252014426e-01  6.5050684220160016e-01 6.1739849819525383e-01 6.0592755250898367e-01  6.5053501500376765e-01 6.1672951583876079e-01 6.0678401429184958e-01  6.5054715575809641e-01 6.1644007372277321e-01 6.0715414006201029e-01  6.5055846445844534e-01 6.1617049131713475e-01 6.0749864052841074e-01  6.5056902315935117e-01 6.1591927166231408e-01 6.0781946389167574e-01  6.5057892487746305e-01 6.1568479647606189e-01 6.0811872689761903e-01  6.5058836589127778e-01 6.1546279814405525e-01 6.0840190857052978e-01  6.5059770859970478e-01 6.1524531623348733e-01 6.0867918019519662e-01  6.5061721148644602e-01 6.1480082528747093e-01 6.0924547875866919e-01  6.5062291881530587e-01 6.1467563967078065e-01 6.0940488115601454e-01  6.5062702851053322e-01 6.1458949869910473e-01 6.0951454496983037e-01  6.5063003167781730e-01 6.1453091064054133e-01 6.0958912754640149e-01  6.5063217273224161e-01 6.1449397097405456e-01 6.0963615882064559e-01  6.5063359041664415e-01 6.1447510047183185e-01 6.0966020121633091e-01  6.5063439838645265e-01 6.1447113243390672e-01 6.0966528693838307e-01  6.5063470894807385e-01 6.1447853255366358e-01 6.0965591150968279e-01  6.5063433382321478e-01 6.1451060238009869e-01 6.0961517789628994e-01  6.5063357056401772e-01 6.1454682878932998e-01 6.0956914198641865e-01  6.5063227268328794e-01 6.1460132091592434e-01 6.0949988013168188e-01  6.5062712459126604e-01 6.1479319262220777e-01 6.0925592245631710e-01  6.5062419957853845e-01 6.1489419894378083e-01 6.0912745286306225e-01  6.5062106576769418e-01 6.1499857588884677e-01 6.0899466352646692e-01  6.5061766047945091e-01 6.1510886565096679e-01 6.0885431689992620e-01  6.5061394757166824e-01 6.1522623397807252e-01 6.0870492391863329e-01  6.5060986055823555e-01 6.1535295015804981e-01 6.0854358742348924e-01  6.5060527674518520e-01 6.1549245725677326e-01 6.0836591406536433e-01  6.5059356610881991e-01 6.1583910505400552e-01 6.0792423580335408e-01  6.5058932628731625e-01 6.1596138992458360e-01 6.0776836166782822e-01  6.5058572790599145e-01 6.1606384386938395e-01 6.0763773359263362e-01  6.5058256420425375e-01 6.1615291853678777e-01 6.0752413957611262e-01  6.5057974815333264e-01 6.1623143119349311e-01 6.0742399585201290e-01  6.5057723537217860e-01 6.1630088632222768e-01 6.0733539004176040e-01  6.5057500960166281e-01 6.1636192858166172e-01 6.0725750504928966e-01  6.5057306690248984e-01 6.1641482444436846e-01 6.0719000545230795e-01  6.5057139707941691e-01 6.1646000393744493e-01 6.0713234621008771e-01  6.5057000525517972e-01 6.1649743635320753e-01 6.0708456981581660e-01  6.5056888308417682e-01 6.1652746005714543e-01 6.0704624682243236e-01  6.5056803734155444e-01 6.1654996307813903e-01 6.0701752235844320e-01  6.5056746163766166e-01 6.1656519052346004e-01 6.0699808490514551e-01  6.5056713239438735e-01 6.1657385413144949e-01 6.0698702616371680e-01  6.5056674650674828e-01 6.1658474635187166e-01 6.0697310968424745e-01  6.5056575100164360e-01 6.1661348060843402e-01 6.0693638510353376e-01  6.5056402957581161e-01 6.1666303009894297e-01 6.0687305202105235e-01  6.5056156647330565e-01 6.1673371545769873e-01 6.0678269198226586e-01  6.5055826356363666e-01 6.1682811421250849e-01 6.0666199829839285e-01  6.5055045731954086e-01 6.1704952701558002e-01 6.0637881600415000e-01  6.5055257995701921e-01 6.1698937375057250e-01 6.0645580814889699e-01  6.5055338903818116e-01 6.1696633695266656e-01 6.0648530279137325e-01  6.5055382188708821e-01 6.1695398473751317e-01 6.0650111991966393e-01  6.5055406453128206e-01 6.1694705525943883e-01 6.0650999333720557e-01  6.5055404156798635e-01 6.1694771101493717e-01 6.0650915364917757e-01  6.5055372927100985e-01 6.1695663360949005e-01 6.0649772729248486e-01  6.5055332581686331e-01 6.1696819491729860e-01 6.0648291436831392e-01  6.5053636138221427e-01 6.1744530375093654e-01 6.0587216531154986e-01  6.5052817708368249e-01 6.1767257840571510e-01 6.0558106017997648e-01  6.5051963710014360e-01 6.1790781421718399e-01 6.0527960607365860e-01  6.5051051278491256e-01 6.1815709582680967e-01 6.0495998101974158e-01  6.5050067049280669e-01 6.1842372043412264e-01 6.0461792202869136e-01  6.5049001364746961e-01 6.1870994452732853e-01 6.0425049248976626e-01  6.5047837597665648e-01 6.1901974015760808e-01 6.0385253868572697e-01  6.5046546677241213e-01 6.1936019832231859e-01 6.0341487933448601e-01  6.5045062776558393e-01 6.1974774858370285e-01 6.0291628420833177e-01  6.5041123946965163e-01 6.2075958332511105e-01 6.0161275616835042e-01  6.5039524367303747e-01 6.2116386224892151e-01 6.0109121065028670e-01  6.5038057717914077e-01 6.2153106474424480e-01 6.0061710159212922e-01  6.5036676722371367e-01 6.2187363395868411e-01 6.0017444771811923e-01  6.5035355246352133e-01 6.2219857588192196e-01 5.9975426174044855e-01  6.5034088232294529e-01 6.2250740785431957e-01 5.9935462624349423e-01  6.5032873506280087e-01 6.2280095930053314e-01 5.9897450973747468e-01  6.5031713391584056e-01 6.2307895925026502e-01 5.9861430158604323e-01  6.5030613469781740e-01 6.2334038182609364e-01 5.9827536934582648e-01  6.5029586148001728e-01 6.2358261245812918e-01 5.9796114124157351e-01  6.5028647833080333e-01 6.2380218288004430e-01 5.9767615941208985e-01  6.5027831036288453e-01 6.2399196186769268e-01 5.9742972779597781e-01  6.5026662447128447e-01 6.2426049086597135e-01 5.9708080298985278e-01  6.5025824243143437e-01 6.2445107827465929e-01 5.9683298641446247e-01  6.5024825593123803e-01 6.2467687759678014e-01 5.9653924814248971e-01  6.5023630406992405e-01 6.2494576116102230e-01 5.9618928466322896e-01  6.5021146657049345e-01 6.2550369772043413e-01 5.9546273007119532e-01  6.5020938079849810e-01 6.2555124571909915e-01 5.9540081619809071e-01  6.5020874435689935e-01 6.2556600802882645e-01 5.9538159941231206e-01  6.5020873189477646e-01 6.2556629797512342e-01 5.9538122196041188e-01  6.5020899136016286e-01 6.2556000933534495e-01 5.9538939957019155e-01  6.5020880502420464e-01 6.2556338519032006e-01 5.9538497082773567e-01  6.5020718692125856e-01 6.2559849594926964e-01 5.9533917457107211e-01  6.5019941685064242e-01 6.2576979772624197e-01 5.9511581274523673e-01  6.5019629919463351e-01 6.2583912265468378e-01 5.9502542431910665e-01  6.5019429867806544e-01 6.2588406199005642e-01 5.9496684031930303e-01  6.5019318354143607e-01 6.2590935201297737e-01 5.9493387701006994e-01  6.5019282907717368e-01 6.2591740937260787e-01 5.9492337508653936e-01  6.5019304363336994e-01 6.2591243340614722e-01 5.9492985746758431e-01  6.5019364626943754e-01 6.2589843828142289e-01 5.9494808816560318e-01  6.5019431459833943e-01 6.2588227074439651e-01 5.9496912526348922e-01  6.5018708303859241e-01 6.2603397145708017e-01 5.9477094946180542e-01  6.5018102072490491e-01 6.2616420673104167e-01 5.9460090821772305e-01  6.5017570437638705e-01 6.2627831193125505e-01 5.9445189763712725e-01  6.5017119647242538e-01 6.2637484419919853e-01 5.9432580899467768e-01  6.5016772793835487e-01 6.2644892066724756e-01 5.9422903301949281e-01  6.5016415263047611e-01 6.2652464770402916e-01 5.9413006497818077e-01  6.5016137782636030e-01 6.2658280965811575e-01 5.9405402097807347e-01  6.5015788495