<?xml version="1.0"?>
<VTKFile type="UnstructuredGrid"  version="0.1"  >
<UnstructuredGrid>
<Piece  NumberOfPoints="7288" NumberOfCells="14083">
<Points>
<DataArray  type="Float64"  NumberOfComponents="3"  format="ascii">239.8 188 0  250.2 180 0  258.2 172.4 0  257 169.4 0  259.9 157.4 0  258.7 150.3 0  261 143.5 0  251.7 144.4 0  250 138.7 0  247 138.1 0  245.2 130.8 0  247.3 126.4 0  242.7 118.6 0  231.2 107.7 0  226 102.4 0  226.5 93.90000000000001 0  224.5 91.19999999999999 0  224.5 84.09999999999999 0  234.5 73.80000000000001 0  228.4 68.90000000000001 0  230 70 0  233.4 68 0  222.7 61.5 0  220.6 45.5 0  223.4 49.40000000000001 0  224 47 0  221.8 43.09999999999999 0  221 38.40000000000001 0  219.5 38.5 0  219.4 41.69999999999999 0  217.1 36.90000000000001 0  209.7 36 0  209.5 31.69999999999999 0  205.1 29.90000000000001 0  201.5 30.40000000000001 0  199.2 38.69999999999999 0  201.8 41.40000000000001 0  194.8 53.80000000000001 0  196.1 57.69999999999999 0  193 59 0  191.4 66.09999999999999 0  193.5 66.5 0  194.1 64.40000000000001 0  195.6 64.69999999999999 0  195.4 72.40000000000001 0  199.5 77.30000000000001 0  197.7 86.90000000000001 0  200.6 87.5 0  201.5 91 0  198 94.80000000000001 0  198.6 100 0  197.3 105.4 0  198 109.5 0  197 112.7 0  198.3 116.1 0  201.3 122 0  207.2 121 0  208.1 126.7 0  205.6 127.9 0  209.1 134.9 0  210.9 144.4 0  210.1 147.9 0  213 148.4 0  215.4 149.3 0  215.1 152.8 0  219.9 159.7 0  220.3 163.2 0  218.7 164.9 0  219.9 166.7 0  221.9 169.7 0  220 170.3 0  224.9 174.7 0  229.8 177.4 0  229.7 181 0  228 172.9 0  239 178 0  240.4 180 0  239 181.5 0  241.2 185.9 0  242.95 187.99 0  240.5875 187.9975 0  241.375 187.995 0  242.1625 187.9925 0  243.6090909090879 187.2636363636397 0  244.2681818181765 186.5372727272785 0  244.9272727272692 185.810909090913 0  245.5863636363531 185.0845454545571 0  246.245454545445 184.3581818181923 0  246.9045454545351 183.6318181818295 0  247.5636363636303 182.9054545454612 0  248.2227272727197 182.1790909090992 0  248.8818181818179 181.4527272727275 0  249.5409090909066 180.7263636363664 0  250.8666666666961 179.3666666666387 0  251.5333333334033 178.7333333332668 0  252.2000000000994 178.0999999999055 0  252.8666666668011 177.466666666539 0  253.5333333335083 176.8333333331671 0  254.2000000002044 176.1999999998058 0  254.8666666669005 175.5666666664445 0  255.5333333336077 174.9333333330727 0  256.2000000002685 174.2999999997449 0  256.8666666668457 173.6666666664966 0  257.5333333334283 173.033333333243 0  257.9000000000077 171.6500000000191 0  257.6000000000015 170.9000000000038 0  257.2999999999954 170.1499999999885 0  257.2230769230778 168.4769230769195 0  257.4461538461543 167.5538461538442 0  257.6692307692309 166.6307692307688 0  257.8923076923074 165.7076923076935 0  258.115384615384 164.7846153846181 0  258.3384615384605 163.8615384615427 0  258.5615384615395 162.9384615384572 0  258.784615384616 162.0153846153819 0  259.0076923076926 161.0923076923065 0  259.2307692307691 160.1692307692311 0  259.4538461538457 159.2461538461558 0  259.6769230769222 158.3230769230804 0  259.750000000001 156.512500000006 0  259.6000000000014 155.6250000000082 0  259.4500000000029 154.7375000000176 0  259.3000000000018 153.8500000000108 0  259.1500000000007 152.962500000004 0  259.0000000000004 152.0750000000026 0  258.849999999999 151.187499999994 0  258.9875000000052 149.4499999999846 0  259.275000000002 148.5999999999941 0  259.5624999999954 147.7500000000135 0  259.849999999995 146.900000000015 0  260.1374999999945 146.0500000000164 0  260.4249999999913 145.2000000000259 0  260.7124999999948 144.3500000000154 0  260.0700000000398 143.5899999999961 0  259.1400000000573 143.6799999999944 0  258.2100000000351 143.7699999999966 0  257.2800000000262 143.8599999999975 0  256.350000000011 143.9499999999989 0  255.4199999999881 144.0400000000011 0  254.4899999999726 144.1300000000026 0  253.5599999999944 144.2200000000005 0  252.6300000000009 144.3099999999999 0  251.4166666666658 143.4499999999971 0  251.1333333333388 142.5000000000182 0  250.8500000000015 141.5500000000051 0  250.5666666666612 140.5999999999818 0  250.2833333333342 139.6500000000029 0  249.2500000000005 138.5500000000001 0  248.5000000000011 138.4000000000002 0  247.7499999999995 138.2499999999999 0  246.7750000000005 137.1875000000023 0  246.5500000000021 136.2750000000085 0  246.3250000000036 135.3625000000147 0  246.1000000000042 134.450000000017 0  245.8750000000022 133.5375000000088 0  245.650000000003 132.6250000000124 0  245.4250000000046 131.7125000000187 0  245.619999999996 129.9200000000084 0  246.0399999999992 129.0400000000017 0  246.4599999999987 128.1600000000028 0  246.8800000000001 127.2799999999997 0  246.8399999999988 125.6199999999979 0  246.3799999999984 124.8399999999973 0  245.9199999999991 124.0599999999985 0  245.4600000000036 123.2800000000062 0  245.0000000000049 122.5000000000082 0  244.5400000000036 121.7200000000062 0  244.0800000000033 120.9400000000056 0  243.6200000000016 120.1600000000027 0  243.1600000000012 119.3800000000021 0  241.9812499999996 117.9187499999997 0  241.2625000000007 117.2375000000007 0  240.5437500000017 116.5562500000017 0  239.8250000000041 115.875000000004 0  239.1062500000066 115.1937500000063 0  238.3875000000076 114.5125000000072 0  237.6687500000087 113.8312500000082 0  236.9500000000083 113.1500000000079 0  236.231250000008 112.4687500000076 0  235.512500000009 111.7875000000085 0  234.7937500000045 111.1062500000043 0  234.0750000000042 110.4250000000039 0  233.3562500000066 109.7437500000062 0  232.6375000000021 109.062500000002 0  231.9187500000031 108.381250000003 0  230.5500000000004 107.0375000000004 0  229.9000000000021 106.3750000000021 0  229.2500000000038 105.7125000000039 0  228.6000000000041 105.0500000000042 0  227.9500000000018 104.3875000000018 0  227.2999999999952 103.7249999999951 0  226.6500000000024 103.0625000000024 0  226.0555555555555 101.4555555555556 0  226.1111111111111 100.5111111111111 0  226.1666666666667 99.56666666666668 0  226.2222222222222 98.62222222222223 0  226.2777777777778 97.67777777777778 0  226.3333333333333 96.73333333333335 0  226.3888888888889 95.78888888888889 0  226.4444444444445 94.84444444444446 0  226 93.22499999999999 0  225.5000000000026 92.55000000000358 0  225.0000000000026 91.87500000000358 0  224.5 90.31250000000068 0  224.5 89.4250000000097 0  224.5 88.53750000001317 0  224.5 87.65000000001388 0  224.5 86.76250000001457 0  224.5 85.87500000001248 0  224.5 84.9874999999993 0  225.1666666666659 83.41333333333409 0  225.8333333333319 82.72666666666818 0  226.4999999999978 82.04000000000228 0  227.1666666666649 81.35333333333514 0  227.8333333333301 80.66666666667 0  228.4999999999942 79.980000000006 0  229.1666666666601 79.2933333333401 0  229.8333333333316 78.60666666666847 0  230.4999999999975 77.92000000000257 0  231.1666666666644 77.23333333333572 0  231.8333333333295 76.54666666667057 0  232.4999999999972 75.86000000000287 0  233.1666666666681 75.17333333333181 0  233.8333333333368 74.48666666666306 0  233.7499999999995 73.16666666666629 0  233.0000000000018 72.53333333333488 0  232.2500000000014 71.90000000000116 0  231.5000000000009 71.26666666666743 0  230.7500000000005 70.63333333333372 0  229.233333333333 68.75000000000006 0  230.0666666666665 68.60000000000004 0  230.8999999999995 68.45000000000009 0  231.7333333333325 68.30000000000015 0  232.566666666667 68.14999999999995 0  232.5499999999897 68.50000000000607 0  231.7 69 0  230.8500000000103 69.49999999999393 0  227.8300000000008 68.16000000000106 0  227.2600000000064 67.42000000000837 0  226.6900000000077 66.68000000001001 0  226.1200000000024 65.94000000000314 0  225.5500000000108 65.20000000001409 0  224.9800000000098 64.46000000001268 0  224.4100000000007 63.72000000000098 0  223.8399999999971 62.97999999999621 0  223.2699999999993 62.23999999999915 0  222.753846153846 60.56923076923239 0  222.8076923076921 59.63846153846478 0  222.8615384615381 58.70769230769827 0  222.9153846153842 57.77692307693071 0  222.9692307692302 56.84615384616315 0  223.0230769230761 55.91538461539836 0  223.0769230769224 54.98461538462665 0  223.1307692307688 54.05384615385345 0  223.184615384615 53.12307692308312 0  223.2384615384611 52.19230769231556 0  223.2923076923071 51.26153846154906 0  223.3461538461533 50.33076923077847 0  222.8400000000024 48.62000000000327 0  222.2800000000047 47.84000000000661 0  221.7200000000005 47.06000000000071 0  221.1600000000003 46.28000000000039 0  221.4500000000116 45.87500000000512 0  222.3 46.25 0  223.1499999999884 46.62499999999488 0  223.5600000000055 46.22000000000981 0  223.1199999999987 45.43999999999767 0  222.6800000000061 44.66000000001075 0  222.2399999999969 43.8799999999944 0  221.6400000000004 42.16000000000253 0  221.4800000000009 41.22000000000548 0  221.3200000000014 40.28000000000801 0  221.1600000000009 39.34000000000556 0  220.25 38.45 0  219.4749999999999 39.30000000000165 0  219.45 40.09999999999999 0  219.425 40.90000000000112 0  219.0166666666641 40.89999999999463 0  218.6333333333375 40.10000000000875 0  218.2500000000016 39.30000000000339 0  217.8666666666635 38.49999999999351 0  217.483333333337 37.70000000000762 0  216.1750000000165 36.78750000000201 0  215.2500000000275 36.67500000000335 0  214.3250000000385 36.56250000000469 0  213.4000000000277 36.45000000000337 0  212.4750000000059 36.33750000000072 0  211.5499999999838 36.22499999999803 0  210.6249999999835 36.11249999999799 0  209.6600000000001 35.14000000000318 0  209.6200000000001 34.28000000000268 0  209.5800000000001 33.42000000000284 0  209.5399999999998 32.55999999999681 0  208.6200000000117 31.34000000000476 0  207.7400000000138 30.98000000000564 0  206.8600000000162 30.62000000000662 0  205.9800000000174 30.26000000000711 0  204.2000000000054 30.02499999999925 0  203.2999999999946 30.15000000000076 0  202.3999999999945 30.27500000000076 0  201.2444444444438 31.32222222222468 0  200.9888888888895 32.24444444
[...]
<PointData  Vectors="f_12"> 
<DataArray  type="Float64"  Name="f_12"  NumberOfComponents="3" format="ascii">6.5102248778675831e-01 6.1195154546167330e-01 6.1279041574259996e-01  6.5111786009553119e-01 5.9815027246340990e-01 6.2987244698877376e-01  6.5099347477394476e-01 5.8261406872035537e-01 6.4849215427934059e-01  6.5081941173830060e-01 5.7647261832308849e-01 6.5563390806640276e-01  6.4925820597078943e-01 5.4032160351973180e-01 6.9572536875162283e-01  6.4797446443404483e-01 5.2165524850304157e-01 7.1499034048075183e-01  6.4758335131553690e-01 5.1601834871303898e-01 7.2064159481545031e-01  6.4541769081629696e-01 4.9538268954025327e-01 7.4027634848507351e-01  6.4238840091379323e-01 4.6849173427273211e-01 7.6420500245592227e-01  6.4089422622841108e-01 4.5684844336580316e-01 7.7380455466272635e-01  6.3568616717875281e-01 4.2011703695741248e-01 8.0146046212168265e-01  6.3405425745008215e-01 4.0969356291387216e-01 8.0849788946527967e-01  6.3191763873352358e-01 3.9708941007739174e-01 8.1643665937915566e-01  6.2659453152436029e-01 3.6854384187860290e-01 8.3217047766624253e-01  6.2290130082915773e-01 3.5042228567300560e-01 8.4044707991531387e-01  6.1941037095923024e-01 3.3421813674431905e-01 8.4667629603680994e-01  6.1839731302554923e-01 3.2970814298935058e-01 8.4818274154625584e-01  6.1585616150124955e-01 3.1868406666787058e-01 8.5146987983918376e-01  6.1408839357764899e-01 3.1125988860688975e-01 8.5334539696087719e-01  6.1454528284805643e-01 3.1315681928800482e-01 8.5289233586947966e-01  6.1434233335497945e-01 3.1231219634646490e-01 8.5309680663198439e-01  6.1425502286428768e-01 3.1194943460764640e-01 8.5318339007378508e-01  6.1697387015241956e-01 3.2344796782801877e-01 8.5011396445924770e-01  6.2152482125008202e-01 3.4365105822662051e-01 8.4318520294523280e-01  6.2035535749585091e-01 3.3832949001253848e-01 8.4519903106415095e-01  6.2174960303554661e-01 3.4467520249418976e-01 8.4278750234701705e-01  6.2186031785203588e-01 3.4518842517077064e-01 8.4258340351789751e-01  6.2209456180110190e-01 3.4626476632336828e-01 8.4215441955533710e-01  6.2209456181547562e-01 3.4626481677837695e-01 8.4215439362994826e-01  6.2206834978245951e-01 3.4615167689644005e-01 8.4219826644908735e-01  6.2270546229249357e-01 3.4912295126089754e-01 8.4098573772736240e-01  6.2359841474478872e-01 3.5334958139536338e-01 8.3918981151036443e-01  6.2417726150237074e-01 3.5610691643353581e-01 8.3798201901908653e-01  6.2432049098823994e-01 3.5679249346101471e-01 8.3767605013610846e-01  6.2433427506618844e-01 3.5685861343401032e-01 8.3764635915111607e-01  6.2379409900491067e-01 3.5428216466504625e-01 8.3878578806423643e-01  6.2306582766194551e-01 3.5084203444138506e-01 8.4025756961976183e-01  6.2000129988178121e-01 3.3669776467221274e-01 8.4578763632984921e-01  6.1920437305588327e-01 3.3313196050033728e-01 8.4703317496995856e-01  6.1878037379026407e-01 3.3124319898408294e-01 8.4767359227246919e-01  6.1767478601789960e-01 3.2639106208607360e-01 8.4923211209055360e-01  6.1770272442617002e-01 3.2651401648993694e-01 8.4919377123868445e-01  6.1834600747099044e-01 3.2933007105784279e-01 8.4830074208378470e-01  6.1812267391590969e-01 3.2835226303913329e-01 8.4861360023494670e-01  6.1733589548989087e-01 3.2492583358764776e-01 8.4968036910883815e-01  6.1687239843574659e-01 3.2293732159483501e-01 8.5027390286744864e-01  6.1722383574442707e-01 3.2447246408397301e-01 8.4982203450949800e-01  6.1749850523570604e-01 3.2567673239315931e-01 8.4945540645690010e-01  6.1870583643678678e-01 3.3100175724409214e-01 8.4775570499171526e-01  6.1999838184338807e-01 3.3677442558051257e-01 8.4577443876552383e-01  6.2115763079542519e-01 3.4206942524829453e-01 8.4381037076557974e-01  6.2258773393374933e-01 3.4872180135128272e-01 8.4117222383548895e-01  6.2358526263239955e-01 3.5346028165624421e-01 8.3917068346301815e-01  6.2423152876065446e-01 3.5656599380480314e-01 8.3781034767239027e-01  6.2475462307654306e-01 3.5911855239732865e-01 8.3665841782832229e-01  6.2557081551416827e-01 3.6316919116655411e-01 8.3477560600753764e-01  6.2705481184595702e-01 3.7083528595635096e-01 8.3099726183216771e-01  6.3061802071824768e-01 3.8984216202800492e-01 8.2069485976206924e-01  6.3125273340340549e-01 3.9332030122830053e-01 8.1867404743674310e-01  6.3351065681218688e-01 4.0641498727048864e-01 8.1058376841250612e-01  6.3754303045330718e-01 4.3168015934924048e-01 7.9328197826814484e-01  6.3814406558037695e-01 4.3567575066941822e-01 7.9035434846591324e-01  6.3854188523826050e-01 4.3852950597535123e-01 7.8820935938955650e-01  6.3988928816745927e-01 4.4839877008310547e-01 7.8058893077260305e-01  6.4162002141946839e-01 4.6158279861309431e-01 7.6999886096611503e-01  6.4539153148521466e-01 4.9523121490570388e-01 7.4041176347238535e-01  6.4731425338574688e-01 5.1512944452189369e-01 7.2140471627450109e-01  6.4785052886759997e-01 5.2100153963345053e-01 7.1560519391665589e-01  6.4816363291237766e-01 5.2476268395174763e-01 7.1181510781157031e-01  6.4871632839948212e-01 5.3196151413413451e-01 7.0445347601155472e-01  6.4859405964413908e-01 5.3008229901167347e-01 7.0640193098213222e-01  6.4945257889269403e-01 5.4319082769305005e-01 6.9267711649426933e-01  6.5064900150830962e-01 5.6876626899801996e-01 6.6450139503136352e-01  6.5079604051716100e-01 5.7202068993870325e-01 6.6080797468076125e-01  6.4977637947309508e-01 5.5006344444921429e-01 6.8523861885284265e-01  6.5091467021244709e-01 5.8505754156115675e-01 6.4552656626773497e-01  6.5102771495544476e-01 5.9896547669935574e-01 6.2881784820382125e-01  6.5104329973951480e-01 6.0415494232551936e-01 6.2247618273462513e-01  6.5103172010027965e-01 6.1054551825181436e-01 6.1454862574476044e-01  6.5102783251192209e-01 6.1138625914850375e-01 6.1349885769143742e-01  6.5102308668489373e-01 6.1187955353694901e-01 6.1288061728575893e-01  6.5102449069865409e-01 6.1172342193766083e-01 6.1307628646619106e-01  6.5102625094223676e-01 6.1154424538706953e-01 6.1330087841315184e-01  6.5103144032379345e-01 6.1098872471013332e-01 6.1399647614079811e-01  6.5103782556225887e-01 6.1027722842140897e-01 6.1488628681200042e-01  6.5104605082704214e-01 6.0935646749401695e-01 6.1603627651801796e-01  6.5105556867117620e-01 6.0827543083903990e-01 6.1738409710646069e-01  6.5106592536748287e-01 6.0706153309520750e-01 6.1889447917989282e-01  6.5107667560902183e-01 6.0575055356940199e-01 6.2052184540625999e-01  6.5108723660035916e-01 6.0434543959176257e-01 6.2226146348797018e-01  6.5109715284693082e-01 6.0287452399492703e-01 6.2407745655432123e-01  6.5110594896881191e-01 6.0136124132437296e-01 6.2594009823693442e-01  6.5111295856360574e-01 5.9978868827229581e-01 6.2786931301221149e-01  6.5112028586921322e-01 5.9661741242165389e-01 6.3174030813156490e-01  6.5112020362720768e-01 5.9513164269630536e-01 6.3354464699277058e-01  6.5111723274055100e-01 5.9364892066477237e-01 6.3533895771262905e-01  6.5111130378318816e-01 5.9216953627746838e-01 6.3712294604806941e-01  6.5110243031162718e-01 5.9070364863080793e-01 6.3888437867933101e-01  6.5109076694326440e-01 5.8926274980055504e-01 6.4060976355590094e-01  6.5107620355808615e-01 5.8784672780145397e-01 6.4229943097691167e-01  6.5105919484916186e-01 5.8647997778883620e-01 6.4392480929058826e-01  6.5104051778050642e-01 5.8519843415861827e-01 6.4544390829144527e-01  6.5102133474601376e-01 5.8404786029744238e-01 6.4680366886354934e-01  6.5100395401290490e-01 5.8311930102173837e-01 6.4789806879202072e-01  6.5097961801533155e-01 5.8208072851007342e-01 6.4911627166426122e-01  6.5094798488618388e-01 5.8091415700412563e-01 6.5047836430349548e-01  6.5089834047774453e-01 5.7915648631690486e-01 6.5252395177921818e-01  6.5071230718769746e-01 5.7299728812225337e-01 6.5963825816692612e-01  6.5061053773833943e-01 5.6989337872944223e-01 6.6318976315343636e-01  6.5050510279373985e-01 5.6687450692471486e-01 6.6661950206309017e-01  6.5039434333691948e-01 5.6389152594030867e-01 6.6998458862002941e-01  6.5027804513659371e-01 5.6093954163846238e-01 6.7329119637668244e-01  6.5015648997733289e-01 5.5802529952479896e-01 6.7653252188733470e-01  6.5003027330460472e-01 5.5516115746884365e-01 6.7969572573762460e-01  6.4990016807432593e-01 5.5235929129357442e-01 6.8276878290833110e-01  6.4976739075819201e-01 5.4964149340079194e-01 6.8572906188762872e-01  6.4963264552222255e-01 5.4701644661293680e-01 6.8856900709816826e-01  6.4949891360137113e-01 5.4452743738013809e-01 6.9124437724747956e-01  6.4936960210306005e-01 5.4222434796304131e-01 6.9370454898623213e-01  6.4914508489015144e-01 5.3848451222878713e-01 6.9766419505008448e-01  6.4900621603893305e-01 5.3630675274014428e-01 6.9994988073892050e-01  6.4885230303860308e-01 5.3396869947307068e-01 7.0238920374225333e-01  6.4868839174352178e-01 5.3155428012916706e-01 7.0489248188698428e-01  6.4851766157556134e-01 5.2910864093557852e-01 7.0741171044613249e-01  6.4834285816660953e-01 5.2666424648949073e-01 7.0991332991743161e-01  6.4816407078142657e-01 5.2421557707944832e-01 7.1240313059818228e-01  6.4782487895729446e-01 5.1960948065980472e-01 7.1704833697884907e-01  6.4772198994987396e-01 5.1819587433065450e-01 7.1846431547953704e-01  6.4765526665685713e-01 5.1724863659700349e-01 7.1941088451449864e-01  6.4761254479282204e-01 5.1661458401688309e-01 7.2004373312164571e-01  6.4758995693808030e-01 5.1624317008417531e-01 7.2041473948831436e-01  6.4758157626223156e-01 5.1606515000871145e-01 7.2059326565905912e-01  6.4758164704289645e-01 5.1601537776584339e-01 7.2064401337607675e-01  6.4757683824449175e-01 5.1596370041812267e-01 7.2069491923204476e-01  6.4755035165353703e-01 5.1572581154647223e-01 7.2092758864198125e-01  6.4749632968052306e-01 5.1522176435651490e-01 7.2142076441631453e-01  6.4740953661774203e-01 5.1439767134188108e-01 7.2222606293979419e-01  6.4728235172057491e-01 5.1317541197371463e-01 7.2341736633118126e-01  6.4710776382398927e-01 5.1148744924809264e-01 7.2505595083783825e-01  6.4687654639705694e-01 5.0925220418764183e-01 7.2721292709382157e-01  6.4657146823683609e-01 5.0631571568788736e-01 7.3002349425586466e-01  6.4614741583379032e-01 5.0226747422609241e-01 7.3385472788078687e-01  6.4455260885853194e-01 4.8736635831202335e-01 7.4762044957610274e-01  6.4393624272970418e-01 4.8179359295929980e-01 7.5262984604810534e-01  6.4340663155223732e-01 4.7712489682466347e-01 7.5675413112872325e-01  6.4295759924398932e-01 4.7325768350370484e-01 7.6012039880783455e-01  6.4259971483566702e-01 4.7023782302599221e-01 7.6271806530314923e-01  6.4225811909414321e-01 4.6744787117392567e-01 7.6508276202305714e-01  6.4198114784077265e-01 4.6525422200136213e-01 7.6691481049428933e-01  6.4156540423117192e-01 4.6200910512966398e-01 7.6959612315681925e-01  6.3997684173759184e-01 4.4993743087925847e-01 7.7933944679475542e-01  6.3927419631072879e-01 4.4476846605595216e-01 7.8338886267021368e-01  6.3864116506566970e-01 4.4021290925891871e-01 7.8688438427864638e-01  6.3804500799248576e-01 4.3600880788982405e-01 7.9004796259824683e-01  6.3747152102443783e-01 4.3204111451613025e-01 7.9297781030001335e-01  6.3690869594738619e-01 4.2821588837726809e-01 7.9575123418063654e-01  6.3633755025954353e-01 4.2439922614409747e-01 7.9846839904646583e-01  6.3510282624715952e-01 4.1633623270122794e-01 8.0405694026746799e-01  6.3470235570822553e-01 4.1377234698371829e-01 8.0579071325922902e-01  6.3439933860343678e-01 4.1185287544155119e-01 8.0707267782591874e-01  6.3417786742611815e-01 4.1046277875542736e-01 8.0799239822971403e-01  6.3394955115239660e-01 4.0905206056030419e-01 8.0891597388189751e-01  6.3378118850866449e-01 4.0802910373109313e-01 8.0957915523023216e-01  6.3357836393806977e-01 4.0680628569957916e-01 8.1036697705045968e-01  6.3335214537293338e-01 4.0545279688681207e-01 8.1123283555321157e-01  6.3311379050622985e-01 4.0403785908993034e-01 8.1213108444181004e-01  6.3286752610893604e-01 4.0258710582025081e-01 8.1304459154474884e-01  6.3261792257910954e-01 4.0112759815385612e-01 8.1395593093617269e-01  6.3237042594393633e-01 3.9969100836313110e-01 8.1484538814359087e-01  6.3213134684292704e-01 3.9831295822164170e-01 8.1569147644435547e-01  6.3167988684998155e-01 3.9573882239798969e-01 8.1725173008704910e-01  6.3140869642072872e-01 3.9420930249780162e-01 8.1816619391688206e-01  6.3112174752143879e-01 3.9260213673253308e-01 8.1911778897350540e-01  6.3082168626803803e-01 3.9093347925211253e-01 8.2009535389473276e-01  6.3051157063741015e-01 3.8922092922210055e-01 8.2108779080683414e-01  6.3019321902604442e-01 3.8747538768380940e-01 8.2208786496313113e-01  6.2986683426351386e-01 3.8569857385679224e-01 8.2309384403944874e-01  6.2953312592266852e-01 3.8389493836236732e-01 8.2410256179199659e-01  6.2919318301810645e-01 3.8207082817165966e-01 8.2510996034266804e-01  6.2884608494778471e-01 3.8022195171257023e-01 8.2611774162074336e-01  6.2849194684111076e-01 3.7834935478013093e-01 8.2712484417105891e-01  6.2813130278757745e-01 3.7645633623712915e-01 8.2812898168738680e-01  6.2776160093047184e-01 3.7453028046438186e-01 8.2913606790392569e-01  6.2738493033954013e-01 3.7258310681003876e-01 8.3013879687616043e-01  6.2699677377067919e-01 3.7059179458695590e-01 8.3114853388310028e-01  6.2620707843538193e-01 3.6658609005331183e-01 8.3313147603260596e-01  6.2581477020181719e-01 3.6461844412495131e-01 8.3408138728298664e-01  6.2541322069247995e-01 3.6261883973081910e-01 8.3503063122210797e-01  6.2499653593169668e-01 3.6055987195270578e-01 8.3598987759201637e-01  6.2456228232022182e-01 3.5843005606246647e-01 8.3696312725177502e-01  6.2409804392199808e-01 3.5617083254467824e-01 8.3797388055977540e-01  6.2357599340801451e-01 3.5365129293890474e-01 8.3907406739540402e-01  6.2222061995264633e-01 3.4719329441639646e-01 8.4178155069382521e-01  6.2170731011261482e-01 3.4477827958820045e-01 8.4275167183576283e-01  6.2126172273583413e-01 3.4269775303643563e-01 8.4356579330777215e-01  6.2085943949986755e-01 3.4083241694288968e-01 8.4427851775189355e-01  6.2049145454985044e-01 3.3913691583448652e-01 8.4491242114080234e-01  6.2015574111261196e-01 3.3759928758961871e-01 8.4547582929306841e-01  6.1985421637450222e-01 3.3622586436292179e-01 8.4596988608519352e-01  6.1959519300626786e-01 3.3505195481302563e-01 8.4638532960537660e-01  6.1926090285093849e-01 3.3354766916514672e-01 8.4690639908743304e-01  6.1903789323349290e-01 3.3255107580223570e-01 8.4724422208715033e-01  6.1876301813195744e-01 3.3132797950560677e-01 8.4765229099659711e-01  6.1799396596295941e-01 3.2793039981168398e-01 8.4875269422197630e-01  6.1765859049762373e-01 3.2645971057943168e-01 8.4921360778786448e-01  6.1735067623593021e-01 3.2511605157050677e-01 8.4962534413754809e-01  6.1705798253035316e-01 3.2384468614943357e-01 8.5000661696256041e-01  6.1677383210490777e-01 3.2261603645222031e-01 8.5036728060402478e-01  6.1649385609340190e-01 3.2141072207884430e-01 8.5071344405580573e-01  6.1620595053771399e-01 3.2017666093238867e-01 8.5106017622812402e-01  6.1551667566567547e-01 3.1724217525892284e-01 8.5185654365160912e-01  6.1527242582249075e-01 3.1620908973690937e-01 8.5212737933428961e-01  6.1507011339743034e-01 3.1535642613614767e-01 8.5234659267163226e-01  6.1489651163976533e-01 3.1462703510377471e-01 8.5253097936393574e-01  6.1474564156755218e-01 3.1399486582893149e-01 8.5268847068873843e-01  6.1461408803943551e-01 3.1344493857516309e-01 8.5282374259373450e-01  6.1449976572132614e-01 3.1296804327021854e-01 8.5293974827570418e-01  6.1440119536818705e-01 3.1255761848495761e-01 8.5303861655641056e-01  6.1431721104672099e-01 3.1220848226677844e-01 8.5312202271725601e-01  6.1424703239679157e-01 3.1191713757678319e-01 8.5319112963193833e-01  6.1419007797641967e-01 3.1168095778501032e-01 8.5324682506550276e-01  6.1414598436290180e-01 3.1149827483967235e-01 8.5328970375687541e-01  6.1411453729262266e-01 3.1136807484419032e-01 8.5332015758301427e-01  6.1409570346754638e-01 3.1129013171598957e-01 8.5333834634153782e-01  6.1409632088318544e-01 3.1129267456883419e-01 8.5333774285776021e-01  6.1411788757218522e-01 3.1138188908086534e-01 8.5331688047397913e-01  6.1415354971304359e-01 3.1152947978265871e-01 8.5328227215143437e-01  6.1420324656091363e-01 3.1173529606988570e-01 8.5323381524006192e-01  6.1426661194970766e-01 3.1199795871664732e-01 8.5317165194540934e-01  6.1440797201310915e-01 3.1258512931771021e-01 8.5303113016183196e-01  6.1433961028043693e-01 3.1230080987784414e-01 8.5309960135721741e-01  6.1430145801344238e-01 3.1214225818508429e-01 8.5313753480655763e-01  6.1427684811718486e-01 3.1204004386776935e-01 8.5316187914287089e-01  6.1426203714545413e-01 3.1197855092973625e-01 8.5317648463083284e-01  6.1426344969300484e-01 3.1198441461928511e-01 8.5317509362695287e-01  6.1428308634389306e-01 3.1206594607127847e-01 8.5315572400156958e-01  6.1431342082945473e-01 3.1219195249952270e-01 8.5312569209247979e-01  6.1474285404801354e-01 3.1398098783503448e-01 8.5268987638471860e-01  6.1491908279413232e-01 3.1471792911886487e-01 8.5250609877966699e-01  6.1510018322848792e-01 3.1547724094683877e-01 8.5231373792040144e-01  6.1529287476131800e-01 3.1628738071052226e-01 8.5210514801136394e-01  6.1550075027144302e-01 3.1716392118380804e-01 8.5187558405825958e-01  6.1572641502695002e-01 3.1811842721670225e-01 8.5162104042182207e-01  6.1597350580969956e-01 3.1916706676725426e-01 8.5133589697455059e-01  6.1624790984859013e-01 3.2033587188322799e-01 8.5101129513385276e-01  6.1656337761451740e-01 3.2168492244296593e-01 8.5062786250425027e-01  6.1739444156146905e-01 3.2526262199632056e-01 8.4957137988107312e-01  6.1773046992733605e-01 3.2671908823667678e-01 8.4912481998223865e-01  6.1803961506997229e-01 3.2806468195308214e-01 8.4870296519275834e-01  6.1833184802609986e-01 3.2934190535787311e-01 8.4829419074312640e-01  6.1861280866054924e-01 3.3057463973630430e-01 8.4789214029990634e-01  6.1888326367704860e-01 3.3176579160102843e-01 8.4749670375998776e-01  6.1914348191814539e-01 3.3291607084578562e-01 8.4710844780749550e-01  6.1939275167195817e-01 3.3402186872051715e-01 8.4672935943306393e-01  6.1962968782809491e-01 3.3507653960199496e-01 8.4636253073944445e-01  6.1985145075839265e-01 3.3606690353388019e-01 8.4601340834606309e-01  6.2005443726425991e-01 3.3697621230796332e-01 8.4568893018329994e-01  6.2023158867337902e-01 3.3777205732710586e-01 8.4540188183841125e-01  6.2048672494600077e-01 3.3892330964841738e-01 8.4498049242541395e-01  6.2067083223457253e-01 3.3975773222905903e-01 8.4467047261574613e-01  6.2089017798466994e-01 3.4075461094322751e-01 8.4429593270933645e-01  6.2115206675484669e-01 3.4194819140695432e-01 8.4384170141324877e-01  6.2168950340682094e-01 3.4440235078776216e-01 8.4289368435621959e-01  6.2173318016956614e-01 3.4460099073307682e-01 8.4281642149433511e-01  6.2174613741550744e-01 3.4465960246669008e-01 8.4279358796754567e-01  6.2174638986075803e-01 3.4466074391010382e-01 8.4279314168361952e-01  6.2174149721181393e-01 3.4463900072862241e-01 8.4280154401320062e-01  6.2174667034022379e-01 3.4466385059180649e-01 8.4279144984893950e-01  6.2178310489517996e-01 3.4483242592075070e-01 8.4272457561722991e-01  6.2195354786553159e-01 3.4561774123382194e-01 8.4241274344728656e-01  6.2202086914658661e-01 3.4592731363504031e-01 8.4228931526197792e-01  6.2206336960514219e-01 3.4612219008463496e-01 8.4221146894847720e-01  6.2208671859543752e-01 3.4622895206657434e-01 8.4216875943705349e-01  6.2209411763260025e-01 3.4626276553779090e-01 8.4215521731986598e-01  6.2208978495431699e-01 3.4624310904279609e-01 8.4216307395822088e-01  6.2207765234816648e-01 3.4618810924362281e-01 8.4218502686160090e-01  6.2206517923838389e-01 3.4613260342134156e-01 8.4220695726625150e-01  6.2223326372945309e-01 3.4691989867293793e-01 8.4188777257902336e-01  6.2236860745971312e-01 3.4755016048024423e-01 8.4163172782927098e-01  6.2248670103561465e-01 3.4810068992734849e-01 8.4140677871164982e-01  6.2258664124237861e-01 3.4856723250206578e-01 8.4121517568332349e-01  6.2266347826561397e-01 3.4892641367069671e-01 8.4106704611448901e-01  6.2274321333942684e-01 3.4930031197850969e-01 8.4091202700157286e-01  6.2280562206471402e-01 3.4959405208151884e-01 8.4078957273650090e-01  6.2288409609