<?xml version="1.0"?>
<VTKFile type="UnstructuredGrid"  version="0.1"  >
<UnstructuredGrid>
<Piece  NumberOfPoints="7288" NumberOfCells="14083">
<Points>
<DataArray  type="Float64"  NumberOfComponents="3"  format="ascii">239.8 188 0  250.2 180 0  258.2 172.4 0  257 169.4 0  259.9 157.4 0  258.7 150.3 0  261 143.5 0  251.7 144.4 0  250 138.7 0  247 138.1 0  245.2 130.8 0  247.3 126.4 0  242.7 118.6 0  231.2 107.7 0  226 102.4 0  226.5 93.90000000000001 0  224.5 91.19999999999999 0  224.5 84.09999999999999 0  234.5 73.80000000000001 0  228.4 68.90000000000001 0  230 70 0  233.4 68 0  222.7 61.5 0  220.6 45.5 0  223.4 49.40000000000001 0  224 47 0  221.8 43.09999999999999 0  221 38.40000000000001 0  219.5 38.5 0  219.4 41.69999999999999 0  217.1 36.90000000000001 0  209.7 36 0  209.5 31.69999999999999 0  205.1 29.90000000000001 0  201.5 30.40000000000001 0  199.2 38.69999999999999 0  201.8 41.40000000000001 0  194.8 53.80000000000001 0  196.1 57.69999999999999 0  193 59 0  191.4 66.09999999999999 0  193.5 66.5 0  194.1 64.40000000000001 0  195.6 64.69999999999999 0  195.4 72.40000000000001 0  199.5 77.30000000000001 0  197.7 86.90000000000001 0  200.6 87.5 0  201.5 91 0  198 94.80000000000001 0  198.6 100 0  197.3 105.4 0  198 109.5 0  197 112.7 0  198.3 116.1 0  201.3 122 0  207.2 121 0  208.1 126.7 0  205.6 127.9 0  209.1 134.9 0  210.9 144.4 0  210.1 147.9 0  213 148.4 0  215.4 149.3 0  215.1 152.8 0  219.9 159.7 0  220.3 163.2 0  218.7 164.9 0  219.9 166.7 0  221.9 169.7 0  220 170.3 0  224.9 174.7 0  229.8 177.4 0  229.7 181 0  228 172.9 0  239 178 0  240.4 180 0  239 181.5 0  241.2 185.9 0  242.95 187.99 0  240.5875 187.9975 0  241.375 187.995 0  242.1625 187.9925 0  243.6090909090879 187.2636363636397 0  244.2681818181765 186.5372727272785 0  244.9272727272692 185.810909090913 0  245.5863636363531 185.0845454545571 0  246.245454545445 184.3581818181923 0  246.9045454545351 183.6318181818295 0  247.5636363636303 182.9054545454612 0  248.2227272727197 182.1790909090992 0  248.8818181818179 181.4527272727275 0  249.5409090909066 180.7263636363664 0  250.8666666666961 179.3666666666387 0  251.5333333334033 178.7333333332668 0  252.2000000000994 178.0999999999055 0  252.8666666668011 177.466666666539 0  253.5333333335083 176.8333333331671 0  254.2000000002044 176.1999999998058 0  254.8666666669005 175.5666666664445 0  255.5333333336077 174.9333333330727 0  256.2000000002685 174.2999999997449 0  256.8666666668457 173.6666666664966 0  257.5333333334283 173.033333333243 0  257.9000000000077 171.6500000000191 0  257.6000000000015 170.9000000000038 0  257.2999999999954 170.1499999999885 0  257.2230769230778 168.4769230769195 0  257.4461538461543 167.5538461538442 0  257.6692307692309 166.6307692307688 0  257.8923076923074 165.7076923076935 0  258.115384615384 164.7846153846181 0  258.3384615384605 163.8615384615427 0  258.5615384615395 162.9384615384572 0  258.784615384616 162.0153846153819 0  259.0076923076926 161.0923076923065 0  259.2307692307691 160.1692307692311 0  259.4538461538457 159.2461538461558 0  259.6769230769222 158.3230769230804 0  259.750000000001 156.512500000006 0  259.6000000000014 155.6250000000082 0  259.4500000000029 154.7375000000176 0  259.3000000000018 153.8500000000108 0  259.1500000000007 152.962500000004 0  259.0000000000004 152.0750000000026 0  258.849999999999 151.187499999994 0  258.9875000000052 149.4499999999846 0  259.275000000002 148.5999999999941 0  259.5624999999954 147.7500000000135 0  259.849999999995 146.900000000015 0  260.1374999999945 146.0500000000164 0  260.4249999999913 145.2000000000259 0  260.7124999999948 144.3500000000154 0  260.0700000000398 143.5899999999961 0  259.1400000000573 143.6799999999944 0  258.2100000000351 143.7699999999966 0  257.2800000000262 143.8599999999975 0  256.350000000011 143.9499999999989 0  255.4199999999881 144.0400000000011 0  254.4899999999726 144.1300000000026 0  253.5599999999944 144.2200000000005 0  252.6300000000009 144.3099999999999 0  251.4166666666658 143.4499999999971 0  251.1333333333388 142.5000000000182 0  250.8500000000015 141.5500000000051 0  250.5666666666612 140.5999999999818 0  250.2833333333342 139.6500000000029 0  249.2500000000005 138.5500000000001 0  248.5000000000011 138.4000000000002 0  247.7499999999995 138.2499999999999 0  246.7750000000005 137.1875000000023 0  246.5500000000021 136.2750000000085 0  246.3250000000036 135.3625000000147 0  246.1000000000042 134.450000000017 0  245.8750000000022 133.5375000000088 0  245.650000000003 132.6250000000124 0  245.4250000000046 131.7125000000187 0  245.619999999996 129.9200000000084 0  246.0399999999992 129.0400000000017 0  246.4599999999987 128.1600000000028 0  246.8800000000001 127.2799999999997 0  246.8399999999988 125.6199999999979 0  246.3799999999984 124.8399999999973 0  245.9199999999991 124.0599999999985 0  245.4600000000036 123.2800000000062 0  245.0000000000049 122.5000000000082 0  244.5400000000036 121.7200000000062 0  244.0800000000033 120.9400000000056 0  243.6200000000016 120.1600000000027 0  243.1600000000012 119.3800000000021 0  241.9812499999996 117.9187499999997 0  241.2625000000007 117.2375000000007 0  240.5437500000017 116.5562500000017 0  239.8250000000041 115.875000000004 0  239.1062500000066 115.1937500000063 0  238.3875000000076 114.5125000000072 0  237.6687500000087 113.8312500000082 0  236.9500000000083 113.1500000000079 0  236.231250000008 112.4687500000076 0  235.512500000009 111.7875000000085 0  234.7937500000045 111.1062500000043 0  234.0750000000042 110.4250000000039 0  233.3562500000066 109.7437500000062 0  232.6375000000021 109.062500000002 0  231.9187500000031 108.381250000003 0  230.5500000000004 107.0375000000004 0  229.9000000000021 106.3750000000021 0  229.2500000000038 105.7125000000039 0  228.6000000000041 105.0500000000042 0  227.9500000000018 104.3875000000018 0  227.2999999999952 103.7249999999951 0  226.6500000000024 103.0625000000024 0  226.0555555555555 101.4555555555556 0  226.1111111111111 100.5111111111111 0  226.1666666666667 99.56666666666668 0  226.2222222222222 98.62222222222223 0  226.2777777777778 97.67777777777778 0  226.3333333333333 96.73333333333335 0  226.3888888888889 95.78888888888889 0  226.4444444444445 94.84444444444446 0  226 93.22499999999999 0  225.5000000000026 92.55000000000358 0  225.0000000000026 91.87500000000358 0  224.5 90.31250000000068 0  224.5 89.4250000000097 0  224.5 88.53750000001317 0  224.5 87.65000000001388 0  224.5 86.76250000001457 0  224.5 85.87500000001248 0  224.5 84.9874999999993 0  225.1666666666659 83.41333333333409 0  225.8333333333319 82.72666666666818 0  226.4999999999978 82.04000000000228 0  227.1666666666649 81.35333333333514 0  227.8333333333301 80.66666666667 0  228.4999999999942 79.980000000006 0  229.1666666666601 79.2933333333401 0  229.8333333333316 78.60666666666847 0  230.4999999999975 77.92000000000257 0  231.1666666666644 77.23333333333572 0  231.8333333333295 76.54666666667057 0  232.4999999999972 75.86000000000287 0  233.1666666666681 75.17333333333181 0  233.8333333333368 74.48666666666306 0  233.7499999999995 73.16666666666629 0  233.0000000000018 72.53333333333488 0  232.2500000000014 71.90000000000116 0  231.5000000000009 71.26666666666743 0  230.7500000000005 70.63333333333372 0  229.233333333333 68.75000000000006 0  230.0666666666665 68.60000000000004 0  230.8999999999995 68.45000000000009 0  231.7333333333325 68.30000000000015 0  232.566666666667 68.14999999999995 0  232.5499999999897 68.50000000000607 0  231.7 69 0  230.8500000000103 69.49999999999393 0  227.8300000000008 68.16000000000106 0  227.2600000000064 67.42000000000837 0  226.6900000000077 66.68000000001001 0  226.1200000000024 65.94000000000314 0  225.5500000000108 65.20000000001409 0  224.9800000000098 64.46000000001268 0  224.4100000000007 63.72000000000098 0  223.8399999999971 62.97999999999621 0  223.2699999999993 62.23999999999915 0  222.753846153846 60.56923076923239 0  222.8076923076921 59.63846153846478 0  222.8615384615381 58.70769230769827 0  222.9153846153842 57.77692307693071 0  222.9692307692302 56.84615384616315 0  223.0230769230761 55.91538461539836 0  223.0769230769224 54.98461538462665 0  223.1307692307688 54.05384615385345 0  223.184615384615 53.12307692308312 0  223.2384615384611 52.19230769231556 0  223.2923076923071 51.26153846154906 0  223.3461538461533 50.33076923077847 0  222.8400000000024 48.62000000000327 0  222.2800000000047 47.84000000000661 0  221.7200000000005 47.06000000000071 0  221.1600000000003 46.28000000000039 0  221.4500000000116 45.87500000000512 0  222.3 46.25 0  223.1499999999884 46.62499999999488 0  223.5600000000055 46.22000000000981 0  223.1199999999987 45.43999999999767 0  222.6800000000061 44.66000000001075 0  222.2399999999969 43.8799999999944 0  221.6400000000004 42.16000000000253 0  221.4800000000009 41.22000000000548 0  221.3200000000014 40.28000000000801 0  221.1600000000009 39.34000000000556 0  220.25 38.45 0  219.4749999999999 39.30000000000165 0  219.45 40.09999999999999 0  219.425 40.90000000000112 0  219.0166666666641 40.89999999999463 0  218.6333333333375 40.10000000000875 0  218.2500000000016 39.30000000000339 0  217.8666666666635 38.49999999999351 0  217.483333333337 37.70000000000762 0  216.1750000000165 36.78750000000201 0  215.2500000000275 36.67500000000335 0  214.3250000000385 36.56250000000469 0  213.4000000000277 36.45000000000337 0  212.4750000000059 36.33750000000072 0  211.5499999999838 36.22499999999803 0  210.6249999999835 36.11249999999799 0  209.6600000000001 35.14000000000318 0  209.6200000000001 34.28000000000268 0  209.5800000000001 33.42000000000284 0  209.5399999999998 32.55999999999681 0  208.6200000000117 31.34000000000476 0  207.7400000000138 30.98000000000564 0  206.8600000000162 30.62000000000662 0  205.9800000000174 30.26000000000711 0  204.2000000000054 30.02499999999925 0  203.2999999999946 30.15000000000076 0  202.3999999999945 30.27500000000076 0  201.2444444444438 31.32222222222468 0  200.9888888888895 32.24444444
[...]
<PointData  Vectors="f_12"> 
<DataArray  type="Float64"  Name="f_12"  NumberOfComponents="3" format="ascii">5.4054074352951609e-01 2.1563771037305765e-01 6.4763255793762864e-01  5.3943996543503725e-01 2.1291289328888571e-01 6.4506009027919509e-01  5.3806076618110787e-01 2.0959191625155935e-01 6.4172652342918812e-01  5.3737005654603132e-01 2.0799892511145784e-01 6.3999785445601187e-01  5.3248564473356141e-01 1.9738709771190641e-01 6.2695054208240641e-01  5.2903888615999850e-01 1.9074415386080057e-01 6.1681621267336884e-01  5.2801443236223233e-01 1.8877366115397995e-01 6.1370164245014713e-01  5.2227715381723849e-01 1.8047053916658670e-01 5.9444006860594889e-01  5.1446933236354797e-01 1.7105666909248354e-01 5.6549595783507767e-01  5.1074523977334207e-01 1.6821925144714259e-01 5.4999809826334989e-01  4.9886661554779410e-01 1.6449391443507438e-01 4.9492986446012510e-01  4.9558884950090221e-01 1.6558933672425141e-01 4.7780213942399574e-01  4.9174519649985554e-01 1.7097563079272954e-01 4.5512466225450915e-01  4.8587131743107864e-01 1.9885656974768892e-01 4.0875752987848496e-01  4.8488945716888632e-01 2.2290781854673516e-01 3.8992958760442570e-01  4.8513790504047855e-01 2.4443309607930103e-01 3.7897339003437214e-01  4.8538917420761241e-01 2.5040484358139548e-01 3.7689915856393158e-01  4.8616352026052290e-01 2.6445229956493443e-01 3.7295694588683442e-01  4.8672779349880924e-01 2.7268552364354504e-01 3.7120567146308536e-01  4.8676095742730835e-01 2.7309184979953260e-01 3.7114950485851383e-01  4.8675321705010510e-01 2.7300272205639509e-01 3.7115888584467721e-01  4.8676800657707020e-01 2.7319976959708947e-01 3.7112344685616727e-01  4.8684101504486471e-01 2.7396218467656336e-01 3.7108669315809351e-01  4.8677427155051511e-01 2.7274431387233677e-01 3.7146916051308027e-01  4.8681187072947668e-01 2.7332046519292452e-01 3.7132752640159167e-01  4.8676639641362102e-01 2.7262351547442232e-01 3.7149890503076322e-01  4.8676229536930682e-01 2.7256254371988903e-01 3.7151304934951562e-01  4.8675356216336357e-01 2.7243021296166858e-01 3.7154489309146987e-01  4.8675356267965247e-01 2.7243023213954887e-01 3.7154488328858004e-01  4.8675461664436265e-01 2.7244778466769620e-01 3.7153993539794561e-01  4.8672978548117352e-01 2.7207883546748085e-01 3.7162529900409030e-01  4.8669191227698400e-01 2.7151792412052173e-01 3.7175379849291268e-01  4.8666491114309635e-01 2.7111691181816017e-01 3.7184601370454112e-01  4.8665829546398115e-01 2.7101864017567667e-01 3.7186858647089666e-01  4.8665784640391879e-01 2.7101204981026733e-01 3.7187006181608512e-01  4.8668549241054621e-01 2.7142368229426367e-01 3.7177494271743239e-01  4.8672213541787340e-01 2.7196830456209381e-01 3.7164912706323988e-01  4.8687151926249300e-01 2.7420905150369440e-01 3.7111875762860125e-01  4.8689215316968409e-01 2.7455525294673044e-01 3.7102033786958533e-01  4.8690343385231094e-01 2.7474686971115597e-01 3.7096489582748310e-01  4.8687874856523033e-01 2.7455504845725465e-01 3.7093351047866230e-01  4.8687694169889512e-01 2.7452751544021137e-01 3.7094023542972598e-01  4.8689777872443507e-01 2.7472065202385193e-01 3.7094582182928820e-01  4.8688939196660402e-01 2.7463691055065687e-01 3.7094760932444620e-01  4.8681660951375594e-01 2.7378526981985063e-01 3.7104567718543263e-01  4.8657318149866824e-01 2.7060479862112008e-01 3.7158381701453702e-01  4.8613368389250228e-01 2.6442681625733538e-01 3.7280015713195624e-01  4.8601122543458330e-01 2.6245595500029134e-01 3.7328313211764891e-01  4.8557781576278142e-01 2.5516448840017614e-01 3.7515716123102888e-01  4.8521898969980787e-01 2.4855953288966137e-01 3.7701317734771816e-01  4.8496732271293952e-01 2.4256920998994339e-01 3.7908538992686924e-01  4.8472475462902170e-01 2.3517777304225732e-01 3.8199072137450735e-01  4.8461699694884275e-01 2.2966758440720461e-01 3.8454289765974137e-01  4.8457332398267489e-01 2.2603704376747438e-01 3.8636676104872758e-01  4.8457916693983938e-01 2.2273438632310805e-01 3.8827358664288336e-01  4.8468010441556264e-01 2.1706478899914536e-01 3.9203726384543269e-01  4.8545411557214480e-01 2.0542996899234031e-01 4.0281568680792962e-01  4.8815238483595080e-01 1.8355323008414476e-01 4.2944288082611681e-01  4.8874411899872477e-01 1.8027516306919139e-01 4.3438133754651165e-01  4.9211082256974498e-01 1.7154848723764518e-01 4.5678594331543315e-01  5.0002752886344071e-01 1.6367896968470436e-01 5.0111615345928862e-01  5.0136734991933896e-01 1.6326802838030346e-01 5.0793251706598774e-01  5.0237331476791458e-01 1.6353247682219044e-01 5.1271248165848393e-01  5.0579926161527611e-01 1.6476743947752942e-01 5.2855175441304258e-01  5.1024798921649106e-01 1.6709941204351300e-01 5.4826647362877856e-01  5.2045636964843245e-01 1.7792232677781469e-01 5.8804425963339790e-01  5.2570100958617583e-01 1.8541758579895706e-01 6.0612390592482046e-01  5.2715791295241243e-01 1.8767595331042036e-01 6.1089396975680454e-01  5.2802798822610120e-01 1.8913768052133897e-01 6.1363570320464977e-01  5.2960420923083040e-01 1.9191327051396553e-01 6.1848668201161816e-01  5.2922760929209367e-01 1.9119954536747275e-01 6.1735987129414061e-01  5.3182969867586583e-01 1.9612572448384930e-01 6.2506186822807508e-01  5.3591243963412016e-01 2.0471517789570215e-01 6.3625279518876465e-01  5.3639089996858280e-01 2.0575172196437186e-01 6.3750621091214399e-01  5.3296462746767470e-01 1.9849431086281397e-01 6.2824234174352445e-01  5.3791148187181104e-01 2.0931508095007076e-01 6.4132618072330327e-01  5.3936591989431149e-01 2.1277240910513054e-01 6.4486720437659328e-01  5.3986354715318485e-01 2.1397320327544886e-01 6.4605328828551611e-01  5.4042558099216387e-01 2.1535210533280702e-01 6.4736621843588993e-01  5.4049618989423054e-01 2.1552666742070409e-01 6.4752981679624211e-01  5.4053498163951497e-01 2.1562337503867612e-01 6.4761926453016216e-01  5.4052259798831959e-01 2.1559253149509711e-01 6.4759070530942375e-01  5.4050854621936517e-01 2.1555748756416532e-01 6.4755831089270244e-01  5.4046471616331404e-01 2.1544830570167373e-01 6.4745713492319257e-01  5.4040834260967929e-01 2.1530801499867755e-01 6.4732682104498818e-01  5.4033543902419834e-01 2.1512667500267593e-01 6.4715805605618604e-01  5.4024987172430805e-01 2.1491398383700772e-01 6.4695960800167851e-01  5.4015373198710104e-01 2.1467523346525821e-01 6.4673616042219373e-01  5.4004991789043866e-01 2.1441768078781276e-01 6.4649429165414474e-01  5.3993824321119932e-01 2.1414105657163629e-01 6.4623339493688559e-01  5.3982097938060947e-01 2.1385105520639244e-01 6.4595865788315665e-01  5.3969995763132228e-01 2.1355229454922867e-01 6.4567424619842695e-01  5.3957314920522992e-01 2.1324002713088652e-01 6.4537522736453434e-01  5.3931457502858104e-01 2.1260561225221022e-01 6.4476241969241133e-01  5.3919188057012324e-01 2.1230574378852407e-01 6.4447016213654218e-01  5.3906758697747115e-01 2.1200297898134965e-01 6.4417303131205972e-01  5.3894157075006099e-01 2.1169706882241734e-01 6.4387070069237939e-01  5.3881460466633668e-01 2.1138993705217440e-01 6.4356497960569603e-01  5.3868762425684058e-01 2.1108385721854195e-01 6.4325812776469404e-01  5.3856021507837826e-01 2.1077796294892570e-01 6.4294910202588529e-01  5.3843459038153663e-01 2.1047756197060302e-01 6.4264330540352321e-01  5.3831418681625354e-01 2.1019082477574103e-01 6.4234917966625182e-01  5.3820351338186179e-01 2.0992837789395039e-01 6.4207791127390590e-01  5.3811195373247500e-01 2.0971221000454834e-01 6.4185276973563110e-01  5.3800243799268588e-01 2.0945646744765523e-01 6.4158169486876837e-01  5.3787300501930124e-01 2.0915678880956662e-01 6.4125939716837765e-01  5.3767540674705128e-01 2.0870082480497285e-01 6.4076535669456380e-01  5.3696927453909460e-01 2.0708213978164972e-01 6.3898354217825926e-01  5.3660324176272456e-01 2.0625059910489990e-01 6.3804912298001371e-01  5.3623779273503469e-01 2.0542688786392471e-01 6.3710770909267045e-01  5.3586644208768508e-01 2.0459687916507099e-01 6.3614234445067996e-01  5.3548813348836155e-01 2.0375875952161793e-01 6.3514982987714075e-01  5.3510348640661420e-01 2.0291438804579931e-01 6.3413135377168772e-01  5.3471407230327117e-01 2.0206763441164011e-01 6.3309068975381677e-01  5.3432174470927341e-01 2.0122277561841984e-01 6.3203264099885681e-01  5.3392974463010456e-01 2.0038711538197621e-01 6.3096570489851722e-01  5.3353937523077777e-01 1.9956372795508681e-01 6.2989348371703446e-01  5.3315828757625494e-01 1.9876833276386108e-01 6.2883755492352400e-01  5.3279499244414252e-01 1.9801841270029427e-01 6.2782223904605672e-01  5.3217460614335177e-01 1.9676184787783974e-01 6.2606569257744360e-01  5.3179572094805061e-01 1.9600879503062563e-01 6.2497914263929100e-01  5.3137878920608927e-01 1.9518938125663568e-01 6.2377326101770980e-01  5.3093746649011075e-01 1.9433221605700240e-01 6.2248536995068948e-01  5.3048028700001704e-01 1.9345459085389519e-01 6.2113883821887050e-01  5.3001445720313733e-01 1.9257018779282961e-01 6.1975422828570115e-01  5.2954001465936940e-01 1.9167861830857341e-01 6.1833139184828312e-01  5.2864557825764757e-01 1.9000654226047684e-01 6.1562178755103314e-01  5.2837573474899269e-01 1.8949995137988576e-01 6.1479819794836077e-01  5.2820128099071550e-01 1.8916724739825957e-01 6.1426511050155352e-01  5.2808978137572959e-01 1.8894992521049264e-01 6.1392464306967287e-01  5.2803101935374830e-01 1.8882895823427728e-01 6.1374653491927034e-01  5.2800941134147628e-01 1.8877721006574666e-01 6.1368282430812071e-01  5.2800985825699753e-01 1.8876884928651524e-01 6.1368656160909374e-01  5.2799714487528582e-01 1.8874789752970020e-01 6.1364652342957426e-01  5.2792686666489763e-01 1.8864064596372737e-01 6.1342286079843944e-01  5.2778347665307879e-01 1.8841948912668707e-01 6.1296616234298040e-01  5.2755290320481807e-01 1.8806383241183997e-01 6.1222929138409476e-01  5.2721473637365757e-01 1.8754476981576879e-01 6.1114229530977704e-01  5.2675022192204091e-01 1.8683899016264019e-01 6.0963658734399029e-01  5.2613496918098379e-01 1.8591922372115996e-01 6.0761877564829636e-01  5.2532402494704888e-01 1.8473243506348935e-01 6.0491859829860517e-01  5.2420017371239147e-01 1.8313022140671850e-01 6.0110527069028985e-01  5.2001939713687162e-01 1.7747653514558165e-01 5.8641665141888033e-01  5.1842462436238723e-01 1.7546276806525557e-01 5.8060409845476080e-01  5.1706266485055086e-01 1.7383703710865345e-01 5.7551854803952884e-01  5.1591508171075240e-01 1.7254658766836956e-01 5.7114269981626375e-01  5.1500497063456774e-01 1.7158292272052961e-01 5.6761119105596092e-01  5.1414016570737708e-01 1.7077324509688863e-01 5.6416203072571558e-01  5.1344321096989842e-01 1.7020303465315689e-01 5.6130747595012587e-01  5.1240475305178690e-01 1.6940660165998075e-01 5.5699418244959142e-01  5.0851824501868770e-01 1.6679414451799476e-01 5.4041646060544957e-01  5.0684559183398381e-01 1.6588466074228619e-01 5.3303909183697051e-01  5.0536680078674523e-01 1.6523111510894614e-01 5.2635508178505064e-01  5.0400024826823264e-01 1.6477240122412090e-01 5.2003148842014690e-01  5.0271119233528205e-01 1.6448273680722156e-01 5.1392906925710458e-01  5.0147123065451882e-01 1.6434257876805416e-01 5.0793068784985207e-01  5.0023914805725767e-01 1.6434139149593416e-01 5.0184541578543340e-01  4.9766761401527770e-01 1.6474607108850389e-01 4.8878373281774756e-01  4.9686115199361175e-01 1.6499206491169602e-01 4.8458448011247074e-01  4.9626104232656931e-01 1.6523185977417085e-01 4.8141458431486800e-01  4.9582815913789058e-01 1.6544593889391054e-01 4.7909848922508280e-01  4.9538808484839364e-01 1.6575346578809336e-01 4.7668933334162855e-01  4.9506766757184972e-01 1.6605279371912623e-01 4.7489159566710787e-01  4.9468578681274195e-01 1.6645083396898602e-01 4.7272408467265237e-01  4.9426531440792393e-01 1.6693533349634535e-01 4.7030888880885358e-01  4.9382826044448591e-01 1.6749168610063672e-01 4.6776569696292342e-01  4.9338378509394243e-01 1.6811347763203191e-01 4.6514409383039057e-01  4.9294104717924431e-01 1.6879225227752429e-01 4.6249538059112022e-01  4.9250997240599187e-01 1.6951583054894170e-01 4.5987751953666484e-01  4.9210199677944516e-01 1.7026329618709243e-01 4.5736121096388588e-01  4.9135829283728433e-01 1.7183043690071015e-01 4.5264977499275549e-01  4.9093000308669171e-01 1.7286876205347759e-01 4.4985442628259553e-01  4.9049125081543671e-01 1.7403268369404870e-01 4.4693036017578280e-01  4.9005000404478166e-01 1.7531712324495108e-01 4.4392092923793841e-01  4.8961280179737743e-01 1.7671209496316254e-01 4.4086562617195768e-01  4.8918461414086550e-01 1.7821367679851519e-01 4.3779247177982106e-01  4.8876821626468403e-01 1.7982171622118054e-01 4.3471611979705083e-01  4.8836650834667505e-01 1.8153356045376759e-01 4.3165353822761876e-01  4.8798214041421023e-01 1.8334462520698194e-01 4.2862162100608958e-01  4.8761639613898217e-01 1.8525725884284444e-01 4.2562616202879716e-01  4.8727062691943146e-01 1.8726905509432668e-01 4.2267612391133791e-01  4.8694622607955262e-01 1.8937603113882101e-01 4.1978160031908945e-01  4.8664325354083998e-01 1.9158645217692752e-01 4.1693865162020255e-01  4.8636435228353803e-01 1.9389331149040873e-01 4.1416558783527813e-01  4.8610740403821545e-01 1.9631137217077838e-01 4.1144336480534349e-01  4.8567240298032055e-01 2.0133695952216957e-01 4.0630322560022597e-01  4.8549817413245377e-01 2.0387296021599657e-01 4.0394679226693847e-01  4.8534574109022993e-01 2.0648839230609539e-01 4.0165968342640551e-01  4.8521557435186358e-01 2.0921493424619450e-01 3.9942663646699278e-01  4.8510617100887737e-01 2.1206759443024090e-01 3.9723102939128546e-01  4.8501654532322608e-01 2.1511715525291217e-01 3.9502737905454582e-01  4.8494573207807690e-01 2.1853260527973867e-01 3.9271403480434069e-01  4.8486716219207110e-01 2.2723816531349564e-01 3.8734741569348752e-01  4.8487192046408967e-01 2.3046123059045331e-01 3.8553619112956788e-01  4.8489246011956105e-01 2.3323029721554184e-01 3.8406593540518297e-01  4.8492410704724526e-01 2.3570704743862755e-01 3.8282053946893002e-01  4.8496363592085251e-01 2.3795304426245242e-01 3.8174820201258614e-01  4.8500839836351090e-01 2.3998403095657300e-01 3.8082616490517746e-01  4.8505561481270471e-01 2.4179293140573543e-01 3.8004389137538186e-01  4.8510157382018071e-01 2.4333636554467941e-01 3.7940658096745306e-01  4.8517127817869737e-01 2.4532504700195151e-01 3.7864176712382591e-01  4.8522416889827819e-01 2.4664998835600421e-01 3.7816678956532929e-01  4.8529312896842591e-01 2.4827185529052576e-01 3.7760739677539185e-01  4.8549907943226767e-01 2.5271463577099218e-01 3.7616219199403189e-01  4.8559401277746206e-01 2.5460925055807088e-01 3.7558195198010047e-01  4.8568448699717376e-01 2.5633166084974768e-01 3.7507571383279353e-01  4.8577349676555026e-01 2.5795638605942117e-01 3.7461695384097682e-01  4.8586245883436840e-01 2.5951774003785372e-01 3.7419367349085630e-01  4.8595281546153474e-01 2.6104898022785317e-01 3.7379442022388049e-01  4.8604754976277986e-01 2.6260382940160198e-01 3.7340416106549917e-01  4.8627417271026102e-01 2.6616826438161745e-01 3.7255675901601415e-01  4.8635302856066964e-01 2.6736326816110828e-01 3.7228696716573101e-01  4.8641807232176448e-01 2.6832963056629194e-01 3.7207521051293074e-01  4.8647371955911284e-01 2.6914204855937440e-01 3.7190210803356666e-01  4.8652197185333418e-01 2.6983574879994499e-01 3.7175808709869040e-01  4.8656396781903338e-01 2.7043144717993811e-01 3.7163730538045325e-01  4.8660036015916541e-01 2.7094162595041532e-01 3.7153606391146876e-01  4.8663158741280671e-01 2.7137496990428667e-01 3.7145170365183627e-01  4.8665805667606488e-01 2.7173916316328567e-01 3.7138196866930856e-01  4.8667998679793556e-01 2.7203876003617466e-01 3.7132540539777170e-01  4.8669762830816915e-01 2.7227839589003766e-01 3.7128067966693762e-01  4.8671108132258195e-01 2.7246033435486600e-01 3.7124702483961985e-01  4.8672048064658524e-01 2.7258706161103147e-01 3.7122372855113855e-01  4.8672600661083071e-01 2.7266142355236628e-01 3.7121011146564026e-01  4.8672808888941049e-01 2.7268889272932290e-01 3.7120533113027293e-01  4.8672959088505846e-01 2.7270727801653544e-01 3.7120279749092389e-01  4.8673246539326159e-01 2.7274280434377407e-01 3.7119772934955775e-01  4.8673675990269666e-01 2.7279605490997771e-01 3.7119004380843457e-01  4.8674300953396382e-01 2.7287398402814522e-01 3.7117857349422445e-01  4.8675873517615925e-01 2.7307086364454275e-01 3.7114919322853440e-01  4.8676037572719538e-01 2.7309605568823042e-01 3.7114308280509667e-01  4.8676333670525557e-01 2.7313664240926672e-01 3.7113524251724633e-01  4.8676573373088561e-01 2.7316910522529225e-01 3.7112914990936041e-01  4.8676727385611246e-01 2.7318988905633768e-01 3.7112528239177067e-01  4.8676712601338173e-01 2.7318789538018362e-01 3.7112565277402326e-01  4.8676503233509816e-01 2.7315966385811252e-01 3.7113089527249871e-01  4.8676136215436810e-01 2.7311032795639384e-01 3.7113997921071623e-01  4.8676972810246538e-01 2.7319417623173287e-01 3.7113799934473463e-01  4.8677858473546487e-01 2.7329839936868361e-01 3.7112579256298106e-01  4.8678754648382022e-01 2.7340319696495147e-01 3.7111387116680239e-01  4.8679640936270635e-01 2.7350550633525550e-01 3.7110295405834193e-01  4.8680500657307629e-01 2.7360291355196659e-01 3.7109357284032107e-01  4.8681318116078254e-01 2.7369322733264234e-01 3.7108617757614770e-01  4.8682083362122491e-01 2.7377488477636186e-01 3.7108117205914931e-01  4.8682793171448235e-01 2.7384699380476496e-01 3.7107894885894760e-01  4.8683449518093275e-01 2.7390873909097446e-01 3.7108018632387452e-01  4.8684564873627395e-01 2.7398946514897232e-01 3.7109848783370764e-01  4.8684763090886257e-01 2.7398864081413626e-01 3.7111190622290313e-01  4.8684798894701120e-01 2.7396882608711631e-01 3.7112751095015628e-01  4.8684702895478887e-01 2.7393327703334835e-01 3.7114510739304424e-01  4.8684499556521849e-01 2.7388480026571876e-01 3.7116440168236858e-01  4.8684206084767945e-01 2.7382555542020970e-01 3.7118506205059665e-01  4.8683839401174200e-01 2.7375771526518039e-01 3.7120672891035256e-01  4.8683415737501096e-01 2.7368342648581845e-01 3.7122901541971604e-01  4.8682951682742343e-01 2.7360493164728489e-01 3.7125149396085194e-01  4.8682465744012321e-01 2.7352482920980919e-01 3.7127362345237180e-01  4.8681979474203091e-01 2.7344618679756272e-01 3.7129474695311648e-01  4.8681523892416184e-01 2.7337356817452463e-01 3.7131382079396785e-01  4.8680806842010615e-01 2.7326132596036429e-01 3.7134245042706293e-01  4.8680249953855537e-01 2.7317535806033899e-01 3.7136386663803261e-01  4.8679558262252193e-01 2.7306922313572268e-01 3.7139002544872246e-01  4.8678698518688845e-01 2.7293792142675199e-01 3.7142210968609141e-01  4.8676848872268641e-01 2.7265588142436920e-01 3.7149081507054665e-01  4.8676696136680003e-01 2.7263235351691539e-01 3.7149665237139451e-01  4.8676651438107793e-01 2.7262537870013909e-01 3.7149842237375752e-01  4.8676650567975682e-01 2.7262524263041765e-01 3.7149845703078604e-01  4.8676666664062340e-01 2.7262785509510823e-01 3.7149774983611566e-01  4.8676645905236388e-01 2.7262497362390953e-01 3.7149832391700793e-01  4.8676512151330276e-01 2.7260502133155035e-01 3.7150298336311743e-01  4.8675885412655462e-01 2.7251065175760497e-01 3.7152542267085475e-01  4.8675634469530071e-01 2.7247267934295089e-01 3.7153453646243800e-01  4.8675474551954157e-01 2.7244833811554514e-01 3.7154044343435993e-01  4.8675386053360475e-01 2.7243479232940671e-01 3.7154376469505662e-01  4.8675357933644164e-01 2.7243048262927783e-01 3.7154482389209731e-01  4.8675374554446504e-01 2.7243306202778955e-01 3.7154417547106211e-01  4.8675421083393294e-01 2.7244028968809919e-01 3.7154235546013420e-01  4.8675469817677691e-01 2.7244807615099231e-01 3.7154029808231653e-01  4.8674837413294680e-01 2.7235520312113404e-01 3.7156128681632516e-01  4.8674314565530219e-01 2.7227745159467259e-01 3.7157931116346526e-01  4.8673851215345437e-01 2.7220853029450254e-01 3.7159529210224362e-01  4.8673454700131341e-01 2.7214957430653031e-01 3.7160894741189426e-01  4.8673147230444513e-01 2.7210388269935609e-01 3.7161951616511890e-01  4.8672827924220469e-01 2.7205653215393455e-01 3.7163041612155800e-01  4.8672578172060887e-01 2.7201958433796958e-01 3.7163887432393794e-01  4.8672261223