<?xml version="1.0"?>
<VTKFile type="UnstructuredGrid"  version="0.1"  >
<UnstructuredGrid>
<Piece  NumberOfPoints="7288" NumberOfCells="14083">
<Points>
<DataArray  type="Float64"  NumberOfComponents="3"  format="ascii">239.8 188 0  250.2 180 0  258.2 172.4 0  257 169.4 0  259.9 157.4 0  258.7 150.3 0  261 143.5 0  251.7 144.4 0  250 138.7 0  247 138.1 0  245.2 130.8 0  247.3 126.4 0  242.7 118.6 0  231.2 107.7 0  226 102.4 0  226.5 93.90000000000001 0  224.5 91.19999999999999 0  224.5 84.09999999999999 0  234.5 73.80000000000001 0  228.4 68.90000000000001 0  230 70 0  233.4 68 0  222.7 61.5 0  220.6 45.5 0  223.4 49.40000000000001 0  224 47 0  221.8 43.09999999999999 0  221 38.40000000000001 0  219.5 38.5 0  219.4 41.69999999999999 0  217.1 36.90000000000001 0  209.7 36 0  209.5 31.69999999999999 0  205.1 29.90000000000001 0  201.5 30.40000000000001 0  199.2 38.69999999999999 0  201.8 41.40000000000001 0  194.8 53.80000000000001 0  196.1 57.69999999999999 0  193 59 0  191.4 66.09999999999999 0  193.5 66.5 0  194.1 64.40000000000001 0  195.6 64.69999999999999 0  195.4 72.40000000000001 0  199.5 77.30000000000001 0  197.7 86.90000000000001 0  200.6 87.5 0  201.5 91 0  198 94.80000000000001 0  198.6 100 0  197.3 105.4 0  198 109.5 0  197 112.7 0  198.3 116.1 0  201.3 122 0  207.2 121 0  208.1 126.7 0  205.6 127.9 0  209.1 134.9 0  210.9 144.4 0  210.1 147.9 0  213 148.4 0  215.4 149.3 0  215.1 152.8 0  219.9 159.7 0  220.3 163.2 0  218.7 164.9 0  219.9 166.7 0  221.9 169.7 0  220 170.3 0  224.9 174.7 0  229.8 177.4 0  229.7 181 0  228 172.9 0  239 178 0  240.4 180 0  239 181.5 0  241.2 185.9 0  242.95 187.99 0  240.5875 187.9975 0  241.375 187.995 0  242.1625 187.9925 0  243.6090909090879 187.2636363636397 0  244.2681818181765 186.5372727272785 0  244.9272727272692 185.810909090913 0  245.5863636363531 185.0845454545571 0  246.245454545445 184.3581818181923 0  246.9045454545351 183.6318181818295 0  247.5636363636303 182.9054545454612 0  248.2227272727197 182.1790909090992 0  248.8818181818179 181.4527272727275 0  249.5409090909066 180.7263636363664 0  250.8666666666961 179.3666666666387 0  251.5333333334033 178.7333333332668 0  252.2000000000994 178.0999999999055 0  252.8666666668011 177.466666666539 0  253.5333333335083 176.8333333331671 0  254.2000000002044 176.1999999998058 0  254.8666666669005 175.5666666664445 0  255.5333333336077 174.9333333330727 0  256.2000000002685 174.2999999997449 0  256.8666666668457 173.6666666664966 0  257.5333333334283 173.033333333243 0  257.9000000000077 171.6500000000191 0  257.6000000000015 170.9000000000038 0  257.2999999999954 170.1499999999885 0  257.2230769230778 168.4769230769195 0  257.4461538461543 167.5538461538442 0  257.6692307692309 166.6307692307688 0  257.8923076923074 165.7076923076935 0  258.115384615384 164.7846153846181 0  258.3384615384605 163.8615384615427 0  258.5615384615395 162.9384615384572 0  258.784615384616 162.0153846153819 0  259.0076923076926 161.0923076923065 0  259.2307692307691 160.1692307692311 0  259.4538461538457 159.2461538461558 0  259.6769230769222 158.3230769230804 0  259.750000000001 156.512500000006 0  259.6000000000014 155.6250000000082 0  259.4500000000029 154.7375000000176 0  259.3000000000018 153.8500000000108 0  259.1500000000007 152.962500000004 0  259.0000000000004 152.0750000000026 0  258.849999999999 151.187499999994 0  258.9875000000052 149.4499999999846 0  259.275000000002 148.5999999999941 0  259.5624999999954 147.7500000000135 0  259.849999999995 146.900000000015 0  260.1374999999945 146.0500000000164 0  260.4249999999913 145.2000000000259 0  260.7124999999948 144.3500000000154 0  260.0700000000398 143.5899999999961 0  259.1400000000573 143.6799999999944 0  258.2100000000351 143.7699999999966 0  257.2800000000262 143.8599999999975 0  256.350000000011 143.9499999999989 0  255.4199999999881 144.0400000000011 0  254.4899999999726 144.1300000000026 0  253.5599999999944 144.2200000000005 0  252.6300000000009 144.3099999999999 0  251.4166666666658 143.4499999999971 0  251.1333333333388 142.5000000000182 0  250.8500000000015 141.5500000000051 0  250.5666666666612 140.5999999999818 0  250.2833333333342 139.6500000000029 0  249.2500000000005 138.5500000000001 0  248.5000000000011 138.4000000000002 0  247.7499999999995 138.2499999999999 0  246.7750000000005 137.1875000000023 0  246.5500000000021 136.2750000000085 0  246.3250000000036 135.3625000000147 0  246.1000000000042 134.450000000017 0  245.8750000000022 133.5375000000088 0  245.650000000003 132.6250000000124 0  245.4250000000046 131.7125000000187 0  245.619999999996 129.9200000000084 0  246.0399999999992 129.0400000000017 0  246.4599999999987 128.1600000000028 0  246.8800000000001 127.2799999999997 0  246.8399999999988 125.6199999999979 0  246.3799999999984 124.8399999999973 0  245.9199999999991 124.0599999999985 0  245.4600000000036 123.2800000000062 0  245.0000000000049 122.5000000000082 0  244.5400000000036 121.7200000000062 0  244.0800000000033 120.9400000000056 0  243.6200000000016 120.1600000000027 0  243.1600000000012 119.3800000000021 0  241.9812499999996 117.9187499999997 0  241.2625000000007 117.2375000000007 0  240.5437500000017 116.5562500000017 0  239.8250000000041 115.875000000004 0  239.1062500000066 115.1937500000063 0  238.3875000000076 114.5125000000072 0  237.6687500000087 113.8312500000082 0  236.9500000000083 113.1500000000079 0  236.231250000008 112.4687500000076 0  235.512500000009 111.7875000000085 0  234.7937500000045 111.1062500000043 0  234.0750000000042 110.4250000000039 0  233.3562500000066 109.7437500000062 0  232.6375000000021 109.062500000002 0  231.9187500000031 108.381250000003 0  230.5500000000004 107.0375000000004 0  229.9000000000021 106.3750000000021 0  229.2500000000038 105.7125000000039 0  228.6000000000041 105.0500000000042 0  227.9500000000018 104.3875000000018 0  227.2999999999952 103.7249999999951 0  226.6500000000024 103.0625000000024 0  226.0555555555555 101.4555555555556 0  226.1111111111111 100.5111111111111 0  226.1666666666667 99.56666666666668 0  226.2222222222222 98.62222222222223 0  226.2777777777778 97.67777777777778 0  226.3333333333333 96.73333333333335 0  226.3888888888889 95.78888888888889 0  226.4444444444445 94.84444444444446 0  226 93.22499999999999 0  225.5000000000026 92.55000000000358 0  225.0000000000026 91.87500000000358 0  224.5 90.31250000000068 0  224.5 89.4250000000097 0  224.5 88.53750000001317 0  224.5 87.65000000001388 0  224.5 86.76250000001457 0  224.5 85.87500000001248 0  224.5 84.9874999999993 0  225.1666666666659 83.41333333333409 0  225.8333333333319 82.72666666666818 0  226.4999999999978 82.04000000000228 0  227.1666666666649 81.35333333333514 0  227.8333333333301 80.66666666667 0  228.4999999999942 79.980000000006 0  229.1666666666601 79.2933333333401 0  229.8333333333316 78.60666666666847 0  230.4999999999975 77.92000000000257 0  231.1666666666644 77.23333333333572 0  231.8333333333295 76.54666666667057 0  232.4999999999972 75.86000000000287 0  233.1666666666681 75.17333333333181 0  233.8333333333368 74.48666666666306 0  233.7499999999995 73.16666666666629 0  233.0000000000018 72.53333333333488 0  232.2500000000014 71.90000000000116 0  231.5000000000009 71.26666666666743 0  230.7500000000005 70.63333333333372 0  229.233333333333 68.75000000000006 0  230.0666666666665 68.60000000000004 0  230.8999999999995 68.45000000000009 0  231.7333333333325 68.30000000000015 0  232.566666666667 68.14999999999995 0  232.5499999999897 68.50000000000607 0  231.7 69 0  230.8500000000103 69.49999999999393 0  227.8300000000008 68.16000000000106 0  227.2600000000064 67.42000000000837 0  226.6900000000077 66.68000000001001 0  226.1200000000024 65.94000000000314 0  225.5500000000108 65.20000000001409 0  224.9800000000098 64.46000000001268 0  224.4100000000007 63.72000000000098 0  223.8399999999971 62.97999999999621 0  223.2699999999993 62.23999999999915 0  222.753846153846 60.56923076923239 0  222.8076923076921 59.63846153846478 0  222.8615384615381 58.70769230769827 0  222.9153846153842 57.77692307693071 0  222.9692307692302 56.84615384616315 0  223.0230769230761 55.91538461539836 0  223.0769230769224 54.98461538462665 0  223.1307692307688 54.05384615385345 0  223.184615384615 53.12307692308312 0  223.2384615384611 52.19230769231556 0  223.2923076923071 51.26153846154906 0  223.3461538461533 50.33076923077847 0  222.8400000000024 48.62000000000327 0  222.2800000000047 47.84000000000661 0  221.7200000000005 47.06000000000071 0  221.1600000000003 46.28000000000039 0  221.4500000000116 45.87500000000512 0  222.3 46.25 0  223.1499999999884 46.62499999999488 0  223.5600000000055 46.22000000000981 0  223.1199999999987 45.43999999999767 0  222.6800000000061 44.66000000001075 0  222.2399999999969 43.8799999999944 0  221.6400000000004 42.16000000000253 0  221.4800000000009 41.22000000000548 0  221.3200000000014 40.28000000000801 0  221.1600000000009 39.34000000000556 0  220.25 38.45 0  219.4749999999999 39.30000000000165 0  219.45 40.09999999999999 0  219.425 40.90000000000112 0  219.0166666666641 40.89999999999463 0  218.6333333333375 40.10000000000875 0  218.2500000000016 39.30000000000339 0  217.8666666666635 38.49999999999351 0  217.483333333337 37.70000000000762 0  216.1750000000165 36.78750000000201 0  215.2500000000275 36.67500000000335 0  214.3250000000385 36.56250000000469 0  213.4000000000277 36.45000000000337 0  212.4750000000059 36.33750000000072 0  211.5499999999838 36.22499999999803 0  210.6249999999835 36.11249999999799 0  209.6600000000001 35.14000000000318 0  209.6200000000001 34.28000000000268 0  209.5800000000001 33.42000000000284 0  209.5399999999998 32.55999999999681 0  208.6200000000117 31.34000000000476 0  207.7400000000138 30.98000000000564 0  206.8600000000162 30.62000000000662 0  205.9800000000174 30.26000000000711 0  204.2000000000054 30.02499999999925 0  203.2999999999946 30.15000000000076 0  202.3999999999945 30.27500000000076 0  201.2444444444438 31.32222222222468 0  200.9888888888895 32.24444444
[...]
<PointData  Vectors="f_12"> 
<DataArray  type="Float64"  Name="f_12"  NumberOfComponents="3" format="ascii">5.6615612627912060e-01 1.6452910568210818e-01 8.0373546958266273e-01  5.5084623283998146e-01 1.3543414526690939e-01 7.5602431731528608e-01  5.3032707215675923e-01 1.0646817086978991e-01 6.7281001565639442e-01  5.2106604089349839e-01 9.8166872971803251e-02 6.2735633109574473e-01  4.8188742962559511e-01 8.2889899214451723e-02 4.0122792854186712e-01  4.7049383042368809e-01 9.1152071142295718e-02 3.2353165864603650e-01  4.6803431775388504e-01 9.3078935128101101e-02 3.0675164325308457e-01  4.6233913391297471e-01 1.1757424003671950e-01 2.5606659005009746e-01  4.5830389404371175e-01 1.4622879089065929e-01 2.1412752739540575e-01  4.5784390069538056e-01 1.5740476091085945e-01 2.0484463735819083e-01  4.5781789796773353e-01 1.9335496514827386e-01 1.8364764866066194e-01  4.5812525873586984e-01 2.0363638082052751e-01 1.7943098689973727e-01  4.5847654905852703e-01 2.1150682556016023e-01 1.7687697311250913e-01  4.5823152202722184e-01 2.0674503793975599e-01 1.7824969923688913e-01  4.5762573589895172e-01 1.9290547317559431e-01 1.8281759003533163e-01  4.5727791673613533e-01 1.8372134382018801e-01 1.8613582713634338e-01  4.5727802235122444e-01 1.8359441292177747e-01 1.8620574648869015e-01  4.5754710217739608e-01 1.9085651014192592e-01 1.8352947785092580e-01  4.5807294433331397e-01 2.0355977499480737e-01 1.7915969897826511e-01  4.5796961586767154e-01 2.0124469485836816e-01 1.7991111902890752e-01  4.5801762657273443e-01 2.0233562796198210e-01 1.7955303617453813e-01  4.5804874608479385e-01 2.0303033150736446e-01 1.7932748767438264e-01  4.5752558590687070e-01 1.8965891014846334e-01 1.8407858779725536e-01  4.5706268147849388e-01 1.6843057829234348e-01 1.9370878984715334e-01  4.5712859724772564e-01 1.7408881838179011e-01 1.9080605372177173e-01  4.5704779534587409e-01 1.6737389503423800e-01 1.9423321806929136e-01  4.5704727988510307e-01 1.6681039249591631e-01 1.9455879299270776e-01  4.5703742810486314e-01 1.6568809879567220e-01 1.9515291871142262e-01  4.5703746585878002e-01 1.6568775745267333e-01 1.9515334477705046e-01  4.5704392733714072e-01 1.6576554772772348e-01 1.9514714561642776e-01  4.5704467901284213e-01 1.6251633479742933e-01 1.9704247868295044e-01  4.5708840467258238e-01 1.5780568785025348e-01 2.0004911207806400e-01  4.5712434893114517e-01 1.5477241863682584e-01 2.0203051506979758e-01  4.5713513823888469e-01 1.5401578567648311e-01 2.0253635895957359e-01  4.5713625921065237e-01 1.5394014735484915e-01 2.0258729656979774e-01  4.5710067943791272e-01 1.5673347689151734e-01 2.0074594187838118e-01  4.5707626563552606e-01 1.6043330449122645e-01 1.9844786846183021e-01  4.5713029049553977e-01 1.7503983745788393e-01 1.9026316636686866e-01  4.5718743779120236e-01 1.7825869756098059e-01 1.8872816053867883e-01  4.5721814805322863e-01 1.7990218911651354e-01 1.8795178367620027e-01  4.5729285890126053e-01 1.8315339484985593e-01 1.8650078196368541e-01  4.5729065919996104e-01 1.8306016831413294e-01 1.8654224226429636e-01  4.5724936798834015e-01 1.8130421780657124e-01 1.8732035069083108e-01  4.5726433974238329e-01 1.8193551105371414e-01 1.8704158018434888e-01  4.5730031257491227e-01 1.8350170668780669e-01 1.8634459348657648e-01  4.5726528090357560e-01 1.8229082274419792e-01 1.8685426212319953e-01  4.5713621572592089e-01 1.7719688501504255e-01 1.8907738702375096e-01  4.5712079879555867e-01 1.7644594930546539e-01 1.8942851472401345e-01  4.5706092280241095e-01 1.7346156853103023e-01 1.9082683267808512e-01  4.5702211375071705e-01 1.7131692366089463e-01 1.9185360539378335e-01  4.5704032633736658e-01 1.7245380460306281e-01 1.9129831990272139e-01  4.5709664910946224e-01 1.7545736952616425e-01 1.8987506584502095e-01  4.5716828912552582e-01 1.7870892794429497e-01 1.8839681375749243e-01  4.5722142602319976e-01 1.8093719874193581e-01 1.8740611738833324e-01  4.5727662460344554e-01 1.8299013555015003e-01 1.8653105784917037e-01  4.5737102872757318e-01 1.8618534847350424e-01 1.8521798819296897e-01  4.5752280782346805e-01 1.9046655431995832e-01 1.8360895039432884e-01  4.5757113043905934e-01 1.9158799269159540e-01 1.8322647728166996e-01  4.5754052439487436e-01 1.9067367604251131e-01 1.8357864378733563e-01  4.5735477469032693e-01 1.8282208060626867e-01 1.8706748819833388e-01  4.5719934069648477e-01 1.6027400348590076e-01 1.9930359478277923e-01  4.5723382564317422e-01 1.5631199956623040e-01 2.0181670368287813e-01  4.5735371806913044e-01 1.5385415049183779e-01 2.0398136565593630e-01  4.5783686994363904e-01 1.4518596519914484e-01 2.1199514857066656e-01  4.5871485984036958e-01 1.3338443712952117e-01 2.2425917715464436e-01  4.6493221566180182e-01 1.0660487443048962e-01 2.7889621495366412e-01  4.7210285566047766e-01 9.1874791668522734e-02 3.3332553671994508e-01  4.7484176125762717e-01 8.7609925950612150e-02 3.5346409948866314e-01  4.7707128677539984e-01 8.5551163831430327e-02 3.6896098049147247e-01  4.8195263466538651e-01 8.2672256652982182e-02 4.0180744797972201e-01  4.8053507189792444e-01 8.2824627094324713e-02 3.9277961775153186e-01  4.9112253054359623e-01 8.1044065371826832e-02 4.6073684140395155e-01  5.2017015391579791e-01 9.6459310775963952e-02 6.2343191542611487e-01  5.2554876334138112e-01 1.0055569035882403e-01 6.5066630596754116e-01  4.9735260009676768e-01 8.4167757214786462e-02 4.9681972053406082e-01  5.3466664710535894e-01 1.1293687593029529e-01 6.9110901198818886e-01  5.5093556344994266e-01 1.3678924914391660e-01 7.5531969677364497e-01  5.5724711753435485e-01 1.4721743799727863e-01 7.7744711852058346e-01  5.6464256082451070e-01 1.6141210799669353e-01 7.9957398804358315e-01  5.6557850207032923e-01 1.6331417650576688e-01 8.0217671598271634e-01  5.6608109451379884e-01 1.6437194146078912e-01 8.0353311396830973e-01  5.6592035615899461e-01 1.6403412004375897e-01 8.0310005211195945e-01  5.6573856231172859e-01 1.6365086848245422e-01 8.0261008084089547e-01  5.6516745522242062e-01 1.6245865275680940e-01 8.0105103522294974e-01  5.6442794656889217e-01 1.6093039443163920e-01 7.9900280923588174e-01  5.6346522389347709e-01 1.5896078350659090e-01 7.9629223839431063e-01  5.6232459927902667e-01 1.5665814180282392e-01 7.9301359653969339e-01  5.6102775417309925e-01 1.5408103565146883e-01 7.8919895365876325e-01  5.5960728669156279e-01 1.5130908123703535e-01 7.8491227737766023e-01  5.5805500991422052e-01 1.4834322802821051e-01 7.8009959840885179e-01  5.5639836222187944e-01 1.4524908293187186e-01 7.7481918718302101e-01  5.5466049465243361e-01 1.4208410335403257e-01 7.6911661998954284e-01  5.5281181794669831e-01 1.3881173045779008e-01 7.6286774639332389e-01  5.4898030887958005e-01 1.3231827308110264e-01 7.4934631454357592e-01  5.4714440535334719e-01 1.2934396353026786e-01 7.4259692347668604e-01  5.4527623854136020e-01 1.2641594993092473e-01 7.3554502925186416e-01  5.4337857138161660e-01 1.2354053224669412e-01 7.2819782761260410e-01  5.4146755440947247e-01 1.2074472431737028e-01 7.2061237483559315e-01  5.3956151057047996e-01 1.1805243061055536e-01 7.1286696192434296e-01  5.3765585798138982e-01 1.1546023867165324e-01 7.0494345343005638e-01  5.3578715519371223e-01 1.1301356504424295e-01 6.9700408553700322e-01  5.3400967273742117e-01 1.1077628892674324e-01 6.8929603138173867e-01  5.3238954024568474e-01 1.0881804249120441e-01 6.8213772733191247e-01  5.3106223216995641e-01 1.0728111844172293e-01 6.7616973853217266e-01  5.2950237149562029e-01 1.0566102816312008e-01 6.6890391018541406e-01  5.2770316818010465e-01 1.0396455629433837e-01 6.6026180029838621e-01  5.2503202810488026e-01 1.0155621580057414e-01 6.4719250269224204e-01  5.1614110250945378e-01 9.4243542667083846e-02 6.0207649302494470e-01  5.1194766215863552e-01 9.1218283692894656e-02 5.7989556045885615e-01  5.0807130994500438e-01 8.8745565495842171e-02 5.5878074033320202e-01  5.0443700747930798e-01 8.6740351154031781e-02 5.3844781466905889e-01  5.0102915482173582e-01 8.5155653840023202e-02 5.1891873940464384e-01  4.9784296295072761e-01 8.3948460698595892e-02 5.0026569775476848e-01  4.9487768483915845e-01 8.3079077482721739e-02 4.8257105735132927e-01  4.9212727519982097e-01 8.2505701672514337e-02 4.6587770945082035e-01  4.8959894399671317e-01 8.2197673441353980e-02 4.5029010808044617e-01  4.8727906085635414e-01 8.2122846295228966e-02 4.3577945823153108e-01  4.8518675382410609e-01 8.2242270608360049e-02 4.2252012414918211e-01  4.8334244521628694e-01 8.2522465974396400e-02 4.1068374654035733e-01  4.8054623890292175e-01 8.3408914759848213e-02 3.9237464654864040e-01  4.7902646517291697e-01 8.4152890361969601e-02 3.8223065296561110e-01  4.7747272635185217e-01 8.5068160012962565e-02 3.7175648840642539e-01  4.7594638043457482e-01 8.6123602661731080e-02 3.6136813185193256e-01  4.7448119737381395e-01 8.7284862575324987e-02 3.5130666114651043e-01  4.7309649192591741e-01 8.8514877715478432e-02 3.4172151489867286e-01  4.7178613062957186e-01 8.9797103881638099e-02 3.3258618746745533e-01  4.6951715145514628e-01 9.2128852808401454e-02 3.1672735145849629e-01  4.6887943618384459e-01 9.2759591923532655e-02 3.1229415009519479e-01  4.6847729589082288e-01 9.3099570065737450e-02 3.0953720675021146e-01  4.6822572158938841e-01 9.3261609185675609e-02 3.0784509599224619e-01  4.6809134591971685e-01 9.3280650332633192e-02 3.0698405765402048e-01  4.6803662926133505e-01 9.3215613373504660e-02 3.0667954934659547e-01  4.6802895963484453e-01 9.3124824936104258e-02 3.0668866301526748e-01  4.6800834655856061e-01 9.3176944054116848e-02 3.0652535030988348e-01  4.6790297742703629e-01 9.3546681198299453e-02 3.0562531681435778e-01  4.6769341042933643e-01 9.4263180032634383e-02 3.0384880156914590e-01  4.6737190444736343e-01 9.5378189726433818e-02 3.0111734594863870e-01  4.6692913252048684e-01 9.6961637617407184e-02 2.9733360246399854e-01  4.6636536744793761e-01 9.9071238205707152e-02 2.9247101018417931e-01  4.6568319440604017e-01 1.0178309817730186e-01 2.8650971360231597e-01  4.6487031344244439e-01 1.0524656277397179e-01 2.7929501593507622e-01  4.6386281814356767e-01 1.0988877608263431e-01 2.7018486010292114e-01  4.6081601120709736e-01 1.2629328280412427e-01 2.4139234313011110e-01  4.5989891979571429e-01 1.3230028175719999e-01 2.3214079345588501e-01  4.5923501487162977e-01 1.3727097561503754e-01 2.2510538160716959e-01  4.5876514813777292e-01 1.4133357929725354e-01 2.1982411630558554e-01  4.5845221101141564e-01 1.4446086815140030e-01 2.1606906513942370e-01  4.5824433875088300e-01 1.4724138322583760e-01 2.1317682766695992e-01  4.5813804544636116e-01 1.4935027607597814e-01 2.1130735911034831e-01  4.5800979143343695e-01 1.5245565535603917e-01 2.0872729348321961e-01  4.5768005670150635e-01 1.6411497265098482e-01 1.9994104518953112e-01  4.5760539962090024e-01 1.6916691304327350e-01 1.9653763875568336e-01  4.5757606409610341e-01 1.7363248853346636e-01 1.9374858016613072e-01  4.5757860375427523e-01 1.7775720177496199e-01 1.9135055289066741e-01  4.5760629637852968e-01 1.8164909539625457e-01 1.8923963242597400e-01  4.5765461829643628e-01 1.8539897217746551e-01 1.8733456166704140e-01  4.5772214772092673e-01 1.8914076885514058e-01 1.8554713274721976e-01  4.5791786322892164e-01 1.9711627535387388e-01 1.8203444201798624e-01  4.5799335044408557e-01 1.9967117595386685e-01 1.8098114996640924e-01  4.5805393928617988e-01 2.0156831637295083e-01 1.8022482206925308e-01  4.5809963532239067e-01 2.0291664094004330e-01 1.7970252062439535e-01  4.5814598587052280e-01 2.0417227818806982e-01 1.7923882484476081e-01  4.5817845646477473e-01 2.0497531649567924e-01 1.7895927913736615e-01  4.5821677987092591e-01 2.0588737188439898e-01 1.7865014801827256e-01  4.5825847009353216e-01 2.0684756234217089e-01 1.7833229510964982e-01  4.5830068698163073e-01 2.0779137968079220e-01 1.7802677790303606e-01  4.5834232718746448e-01 2.0869929149787145e-01 1.7773855168638480e-01  4.5838212519378690e-01 2.0954924948691234e-01 1.7747317141583438e-01  4.5841862434914071e-01 2.1031491023841259e-01 1.7723763513832055e-01  4.5845082885710309e-01 2.1098092051584311e-01 1.7703522232880578e-01  4.5850017703955342e-01 2.1198486131790917e-01 1.7673450971133539e-01  4.5852219083842194e-01 2.1242743369071876e-01 1.7660338839379433e-01  4.5854014666864917e-01 2.1278783872276713e-01 1.7649678321396903e-01  4.5855344292382128e-01 2.1305625215275795e-01 1.7641699689575155e-01  4.5856145614551141e-01 2.1322203376176485e-01 1.7636667721422497e-01  4.5856354111564462e-01 2.1327360560922429e-01 1.7634888924105022e-01  4.5855950887368574e-01 2.1320783116768591e-01 1.7636439782203514e-01  4.5854909001225619e-01 2.1301926356067954e-01 1.7641483855614382e-01  4.5853196620428099e-01 2.1270090486428173e-01 1.7650245304072926e-01  4.5850826224438695e-01 2.1225346289834113e-01 1.7662753930793293e-01  4.5847800495871605e-01 2.1167514217808589e-01 1.7679126901617923e-01  4.5844115584784967e-01 2.1096225095295612e-01 1.7699552905641272e-01  4.5839815275641932e-01 2.1011923692146084e-01 1.7724021906420503e-01  4.5834848924012928e-01 2.0913140608294123e-01 1.7753090990103121e-01  4.5829304580320290e-01 2.0801057590662919e-01 1.7786573605560280e-01  4.5816941177770132e-01 2.0544280148195457e-01 1.7865141329330264e-01  4.5810429576686973e-01 2.0404980136854461e-01 1.7908846136931014e-01  4.5803613774621132e-01 2.0256147798000099e-01 1.7956325881646754e-01  4.5796491576889287e-01 2.0096949165382003e-01 1.8008052792022824e-01  4.5789073100499761e-01 1.9927332197484288e-01 1.8064102438319851e-01  4.5781286961828088e-01 1.9745089433076590e-01 1.8125335522606437e-01  4.5772854940030006e-01 1.9542879949083727e-01 1.8194380413019004e-01  4.5753176111465355e-01 1.9054622797794121e-01 1.8364539759489265e-01  4.5746727439301155e-01 1.8889359600786687e-01 1.8423198529208920e-01  4.5741663608183419e-01 1.8756873369320076e-01 1.8470788242325115e-01  4.5737578633750303e-01 1.8647740295038087e-01 1.8510467927638213e-01  4.5734292903203139e-01 1.8558091982971570e-01 1.8543454532991463e-01  4.5731725253140931e-01 1.8486521973026063e-01 1.8570097015422316e-01  4.5729812705944850e-01 1.8432002809092005e-01 1.8590627185143779e-01  4.5728501130339611e-01 1.8393637663937948e-01 1.8605253773185088e-01  4.5727435667637145e-01 1.8360075238075463e-01 1.8618471800506889e-01  4.5727159532207079e-01 1.8349146963087987e-01 1.8623130387055142e-01  4.5727191537987921e-01 1.8346328715603935e-01 1.8624830100296275e-01  4.5729235875862417e-01 1.8396999471418438e-01 1.8606856500181496e-01  4.5731083162249875e-01 1.8447451483434849e-01 1.8588069819612218e-01  4.5733392248111865e-01 1.8511145931745746e-01 1.8564272825004455e-01  4.5736178401610711e-01 1.8587897672555481e-01 1.8535656536300973e-01  4.5739509981971460e-01 1.8679183508454861e-01 1.8501755870479231e-01  4.5743404198851811e-01 1.8784721748477529e-01 1.8462823936846981e-01  4.5748097311867308e-01 1.8910586324228348e-01 1.8416676999456583e-01  4.5762117444433942e-01 1.9278710183738559e-01 1.8283281967674980e-01  4.5768077586702505e-01 1.9431230978241090e-01 1.8228817974810244e-01  4.5773485394536378e-01 1.9567059015528726e-01 1.8180865242549799e-01  4.5778504722705521e-01 1.9690788736806952e-01 1.8137710126666348e-01  4.5783175132775700e-01 1.9803833173105143e-01 1.8098763681711885e-01  4.5787497772279617e-01 1.9906659841191152e-01 1.8063761672864331e-01  4.5791456143308529e-01 1.9999296337318673e-01 1.8032593740465075e-01  4.5795026937902333e-01 2.0081619128971712e-01 1.8005198113946455e-01  4.5798187025142517e-01 2.0153521291220897e-01 1.7981504186729033e-01  4.5800910384114107e-01 2.0214783207220172e-01 1.7961491134700591e-01  4.5803174713244510e-01 2.0265243951169098e-01 1.7945125450186200e-01  4.5804956948586067e-01 2.0304662963132755e-01 1.7932416106585267e-01  4.5806239290013323e-01 2.0332867873138469e-01 1.7923362417282748e-01  4.5807010334256743e-01 2.0349765079611426e-01 1.7917954244274009e-01  4.5807090694295205e-01 2.0351534710067054e-01 1.7917381931795018e-01  4.5806571119725048e-01 2.0340188475116705e-01 1.7920990459366176e-01  4.5805737874542174e-01 2.0321929183865922e-01 1.7926812978016604e-01  4.5804605327646741e-01 2.0296980363316186e-01 1.7934801787914942e-01  4.5803226299455019e-01 2.0266383894623738e-01 1.7944653499750968e-01  4.5800359397855117e-01 2.0201730188215916e-01 1.7965736621696593e-01  4.5802225111431971e-01 2.0243805703294887e-01 1.7951988800688698e-01  4.5803388472243262e-01 2.0269877679624351e-01 1.7943503959747581e-01  4.5804170171705350e-01 2.0287336373177725e-01 1.7937835903950966e-01  4.5804647767635009e-01 2.0297982094046682e-01 1.7934384867866759e-01  4.5804602092846658e-01 2.0296964723576574e-01 1.7934714451967962e-01  4.5803966243412203e-01 2.0282790112230575e-01 1.7939309937506046e-01  4.5802964218128217e-01 2.0260412924410151e-01 1.7946575434832901e-01  4.5792520772023920e-01 2.0022009763788395e-01 1.8025096270468624e-01  4.5788769801003509e-01 1.9933899235542318e-01 1.8054682637812680e-01  4.5785071878832245e-01 1.9845228848654214e-01 1.8084882383423251e-01  4.5781276681942212e-01 1.9752135845649180e-01 1.8117079775732003e-01  4.5777323863318015e-01 1.9652724403472177e-01 1.8152030391829138e-01  4.5773178048531776e-01 1.9545629913806123e-01 1.8190322762797254e-01  4.5768799226818374e-01 1.9429199477500717e-01 1.8232683810843367e-01  4.5764122192034917e-01 1.9300896373868431e-01 1.8280202674314130e-01  4.5758962388601027e-01 1.9154519914095439e-01 1.8335395042874927e-01  4.5746353580145055e-01 1.8774998306143231e-01 1.8482702632877079e-01  4.5741624906417788e-01 1.8622989880506721e-01 1.8543471765100883e-01  4.5737455830232726e-01 1.8482920370000641e-01 1.8600530931886256e-01  4.5733688165999042e-01 1.8350094335396319e-01 1.8655705845991585e-01  4.5730225204879416e-01 1.8221773817163919e-01 1.8710029094784500e-01  4.5727049283594084e-01 1.8097630500307973e-01 1.8763590697185686e-01  4.5724145109220982e-01 1.7977550719002328e-01 1.8816367881080162e-01  4.5721508487273049e-01 1.7861905758700169e-01 1.8868120845468681e-01  4.5719140635313943e-01 1.7751399763334746e-01 1.8918448882618108e-01  4.5717055033860321e-01 1.7647433748061306e-01 1.8966620204608489e-01  4.5715266004255756e-01 1.7551769534700878e-01 1.9011701000223621e-01  4.5713808931954458e-01 1.7467825793505129e-01 1.9051921441340139e-01  4.5711965544489475e-01 1.7345675007602049e-01 1.9112122010557012e-01  4.5710814115022480e-01 1.7256699444566559e-01 1.9157131000617722e-01  4.5709551784855718e-01 1.7150403491206070e-01 1.9211560481300000e-01  4.5708156796240701e-01 1.7023394938945255e-01 1.9277221339166270e-01  4.5705283863477930e-01 1.6764919028280373e-01 1.9410389553139801e-01  4.5704955498039468e-01 1.6744660770930297e-01 1.9420170431866890e-01  4.5704823497845398e-01 1.6738879546524729e-01 1.9422724462497865e-01  4.5704820788940526e-01 1.6738767829879558e-01 1.9422772848419984e-01  4.5704907511339610e-01 1.6740708901398138e-01 1.9422177607506366e-01  4.5704982814115264e-01 1.6737559823624890e-01 1.9424482454046960e-01  4.5704939116483251e-01 1.6719170277337836e-01 1.9434941746146461e-01  4.5704415475354343e-01 1.6635539450840875e-01 1.9480488069568830e-01  4.5704148170564857e-01 1.6603134668608655e-01 1.9497743728317876e-01  4.5703934339827651e-01 1.6583132890823479e-01 1.9508101865409219e-01  4.5703793704115986e-01 1.6572381901976294e-01 1.9513517032331193e-01  4.5703747745922757e-01 1.6568993689096578e-01 1.9515214496070185e-01  4.5703785378798745e-01 1.6570880286675180e-01 1.9514341836420451e-01  4.5703893828506698e-01 1.6576143856448813e-01 1.9511929302818737e-01  4.5704081134256319e-01 1.6580896327237041e-01 1.9510294084529073e-01  4.5704404781042790e-01 1.6491841547321853e-01 1.9564117545346524e-01  4.5704369979587639e-01 1.6423025052848458e-01 1.9603960211135671e-01  4.5704358894793201e-01 1.6363081325269668e-01 1.9638769308650059e-01  4.5704380264360794e-01 1.6312283273000727e-01 1.9668445869647055e-01  4.5704424463563620e-01 1.6273127185038280e-01 1.9691485153609084e-01  4.5704558913173871e-01 1.6231973892639140e-01 1.9716236490597519e-01  4.5704753401719916e-01 1.6199245623349107e-01 1.9736457731314636e-01  4.5705044631