<?xml version="1.0"?>
<VTKFile type="UnstructuredGrid"  version="0.1"  >
<UnstructuredGrid>
<Piece  NumberOfPoints="7288" NumberOfCells="14083">
<Points>
<DataArray  type="Float64"  NumberOfComponents="3"  format="ascii">239.8 188 0  250.2 180 0  258.2 172.4 0  257 169.4 0  259.9 157.4 0  258.7 150.3 0  261 143.5 0  251.7 144.4 0  250 138.7 0  247 138.1 0  245.2 130.8 0  247.3 126.4 0  242.7 118.6 0  231.2 107.7 0  226 102.4 0  226.5 93.90000000000001 0  224.5 91.19999999999999 0  224.5 84.09999999999999 0  234.5 73.80000000000001 0  228.4 68.90000000000001 0  230 70 0  233.4 68 0  222.7 61.5 0  220.6 45.5 0  223.4 49.40000000000001 0  224 47 0  221.8 43.09999999999999 0  221 38.40000000000001 0  219.5 38.5 0  219.4 41.69999999999999 0  217.1 36.90000000000001 0  209.7 36 0  209.5 31.69999999999999 0  205.1 29.90000000000001 0  201.5 30.40000000000001 0  199.2 38.69999999999999 0  201.8 41.40000000000001 0  194.8 53.80000000000001 0  196.1 57.69999999999999 0  193 59 0  191.4 66.09999999999999 0  193.5 66.5 0  194.1 64.40000000000001 0  195.6 64.69999999999999 0  195.4 72.40000000000001 0  199.5 77.30000000000001 0  197.7 86.90000000000001 0  200.6 87.5 0  201.5 91 0  198 94.80000000000001 0  198.6 100 0  197.3 105.4 0  198 109.5 0  197 112.7 0  198.3 116.1 0  201.3 122 0  207.2 121 0  208.1 126.7 0  205.6 127.9 0  209.1 134.9 0  210.9 144.4 0  210.1 147.9 0  213 148.4 0  215.4 149.3 0  215.1 152.8 0  219.9 159.7 0  220.3 163.2 0  218.7 164.9 0  219.9 166.7 0  221.9 169.7 0  220 170.3 0  224.9 174.7 0  229.8 177.4 0  229.7 181 0  228 172.9 0  239 178 0  240.4 180 0  239 181.5 0  241.2 185.9 0  242.95 187.99 0  240.5875 187.9975 0  241.375 187.995 0  242.1625 187.9925 0  243.6090909090879 187.2636363636397 0  244.2681818181765 186.5372727272785 0  244.9272727272692 185.810909090913 0  245.5863636363531 185.0845454545571 0  246.245454545445 184.3581818181923 0  246.9045454545351 183.6318181818295 0  247.5636363636303 182.9054545454612 0  248.2227272727197 182.1790909090992 0  248.8818181818179 181.4527272727275 0  249.5409090909066 180.7263636363664 0  250.8666666666961 179.3666666666387 0  251.5333333334033 178.7333333332668 0  252.2000000000994 178.0999999999055 0  252.8666666668011 177.466666666539 0  253.5333333335083 176.8333333331671 0  254.2000000002044 176.1999999998058 0  254.8666666669005 175.5666666664445 0  255.5333333336077 174.9333333330727 0  256.2000000002685 174.2999999997449 0  256.8666666668457 173.6666666664966 0  257.5333333334283 173.033333333243 0  257.9000000000077 171.6500000000191 0  257.6000000000015 170.9000000000038 0  257.2999999999954 170.1499999999885 0  257.2230769230778 168.4769230769195 0  257.4461538461543 167.5538461538442 0  257.6692307692309 166.6307692307688 0  257.8923076923074 165.7076923076935 0  258.115384615384 164.7846153846181 0  258.3384615384605 163.8615384615427 0  258.5615384615395 162.9384615384572 0  258.784615384616 162.0153846153819 0  259.0076923076926 161.0923076923065 0  259.2307692307691 160.1692307692311 0  259.4538461538457 159.2461538461558 0  259.6769230769222 158.3230769230804 0  259.750000000001 156.512500000006 0  259.6000000000014 155.6250000000082 0  259.4500000000029 154.7375000000176 0  259.3000000000018 153.8500000000108 0  259.1500000000007 152.962500000004 0  259.0000000000004 152.0750000000026 0  258.849999999999 151.187499999994 0  258.9875000000052 149.4499999999846 0  259.275000000002 148.5999999999941 0  259.5624999999954 147.7500000000135 0  259.849999999995 146.900000000015 0  260.1374999999945 146.0500000000164 0  260.4249999999913 145.2000000000259 0  260.7124999999948 144.3500000000154 0  260.0700000000398 143.5899999999961 0  259.1400000000573 143.6799999999944 0  258.2100000000351 143.7699999999966 0  257.2800000000262 143.8599999999975 0  256.350000000011 143.9499999999989 0  255.4199999999881 144.0400000000011 0  254.4899999999726 144.1300000000026 0  253.5599999999944 144.2200000000005 0  252.6300000000009 144.3099999999999 0  251.4166666666658 143.4499999999971 0  251.1333333333388 142.5000000000182 0  250.8500000000015 141.5500000000051 0  250.5666666666612 140.5999999999818 0  250.2833333333342 139.6500000000029 0  249.2500000000005 138.5500000000001 0  248.5000000000011 138.4000000000002 0  247.7499999999995 138.2499999999999 0  246.7750000000005 137.1875000000023 0  246.5500000000021 136.2750000000085 0  246.3250000000036 135.3625000000147 0  246.1000000000042 134.450000000017 0  245.8750000000022 133.5375000000088 0  245.650000000003 132.6250000000124 0  245.4250000000046 131.7125000000187 0  245.619999999996 129.9200000000084 0  246.0399999999992 129.0400000000017 0  246.4599999999987 128.1600000000028 0  246.8800000000001 127.2799999999997 0  246.8399999999988 125.6199999999979 0  246.3799999999984 124.8399999999973 0  245.9199999999991 124.0599999999985 0  245.4600000000036 123.2800000000062 0  245.0000000000049 122.5000000000082 0  244.5400000000036 121.7200000000062 0  244.0800000000033 120.9400000000056 0  243.6200000000016 120.1600000000027 0  243.1600000000012 119.3800000000021 0  241.9812499999996 117.9187499999997 0  241.2625000000007 117.2375000000007 0  240.5437500000017 116.5562500000017 0  239.8250000000041 115.875000000004 0  239.1062500000066 115.1937500000063 0  238.3875000000076 114.5125000000072 0  237.6687500000087 113.8312500000082 0  236.9500000000083 113.1500000000079 0  236.231250000008 112.4687500000076 0  235.512500000009 111.7875000000085 0  234.7937500000045 111.1062500000043 0  234.0750000000042 110.4250000000039 0  233.3562500000066 109.7437500000062 0  232.6375000000021 109.062500000002 0  231.9187500000031 108.381250000003 0  230.5500000000004 107.0375000000004 0  229.9000000000021 106.3750000000021 0  229.2500000000038 105.7125000000039 0  228.6000000000041 105.0500000000042 0  227.9500000000018 104.3875000000018 0  227.2999999999952 103.7249999999951 0  226.6500000000024 103.0625000000024 0  226.0555555555555 101.4555555555556 0  226.1111111111111 100.5111111111111 0  226.1666666666667 99.56666666666668 0  226.2222222222222 98.62222222222223 0  226.2777777777778 97.67777777777778 0  226.3333333333333 96.73333333333335 0  226.3888888888889 95.78888888888889 0  226.4444444444445 94.84444444444446 0  226 93.22499999999999 0  225.5000000000026 92.55000000000358 0  225.0000000000026 91.87500000000358 0  224.5 90.31250000000068 0  224.5 89.4250000000097 0  224.5 88.53750000001317 0  224.5 87.65000000001388 0  224.5 86.76250000001457 0  224.5 85.87500000001248 0  224.5 84.9874999999993 0  225.1666666666659 83.41333333333409 0  225.8333333333319 82.72666666666818 0  226.4999999999978 82.04000000000228 0  227.1666666666649 81.35333333333514 0  227.8333333333301 80.66666666667 0  228.4999999999942 79.980000000006 0  229.1666666666601 79.2933333333401 0  229.8333333333316 78.60666666666847 0  230.4999999999975 77.92000000000257 0  231.1666666666644 77.23333333333572 0  231.8333333333295 76.54666666667057 0  232.4999999999972 75.86000000000287 0  233.1666666666681 75.17333333333181 0  233.8333333333368 74.48666666666306 0  233.7499999999995 73.16666666666629 0  233.0000000000018 72.53333333333488 0  232.2500000000014 71.90000000000116 0  231.5000000000009 71.26666666666743 0  230.7500000000005 70.63333333333372 0  229.233333333333 68.75000000000006 0  230.0666666666665 68.60000000000004 0  230.8999999999995 68.45000000000009 0  231.7333333333325 68.30000000000015 0  232.566666666667 68.14999999999995 0  232.5499999999897 68.50000000000607 0  231.7 69 0  230.8500000000103 69.49999999999393 0  227.8300000000008 68.16000000000106 0  227.2600000000064 67.42000000000837 0  226.6900000000077 66.68000000001001 0  226.1200000000024 65.94000000000314 0  225.5500000000108 65.20000000001409 0  224.9800000000098 64.46000000001268 0  224.4100000000007 63.72000000000098 0  223.8399999999971 62.97999999999621 0  223.2699999999993 62.23999999999915 0  222.753846153846 60.56923076923239 0  222.8076923076921 59.63846153846478 0  222.8615384615381 58.70769230769827 0  222.9153846153842 57.77692307693071 0  222.9692307692302 56.84615384616315 0  223.0230769230761 55.91538461539836 0  223.0769230769224 54.98461538462665 0  223.1307692307688 54.05384615385345 0  223.184615384615 53.12307692308312 0  223.2384615384611 52.19230769231556 0  223.2923076923071 51.26153846154906 0  223.3461538461533 50.33076923077847 0  222.8400000000024 48.62000000000327 0  222.2800000000047 47.84000000000661 0  221.7200000000005 47.06000000000071 0  221.1600000000003 46.28000000000039 0  221.4500000000116 45.87500000000512 0  222.3 46.25 0  223.1499999999884 46.62499999999488 0  223.5600000000055 46.22000000000981 0  223.1199999999987 45.43999999999767 0  222.6800000000061 44.66000000001075 0  222.2399999999969 43.8799999999944 0  221.6400000000004 42.16000000000253 0  221.4800000000009 41.22000000000548 0  221.3200000000014 40.28000000000801 0  221.1600000000009 39.34000000000556 0  220.25 38.45 0  219.4749999999999 39.30000000000165 0  219.45 40.09999999999999 0  219.425 40.90000000000112 0  219.0166666666641 40.89999999999463 0  218.6333333333375 40.10000000000875 0  218.2500000000016 39.30000000000339 0  217.8666666666635 38.49999999999351 0  217.483333333337 37.70000000000762 0  216.1750000000165 36.78750000000201 0  215.2500000000275 36.67500000000335 0  214.3250000000385 36.56250000000469 0  213.4000000000277 36.45000000000337 0  212.4750000000059 36.33750000000072 0  211.5499999999838 36.22499999999803 0  210.6249999999835 36.11249999999799 0  209.6600000000001 35.14000000000318 0  209.6200000000001 34.28000000000268 0  209.5800000000001 33.42000000000284 0  209.5399999999998 32.55999999999681 0  208.6200000000117 31.34000000000476 0  207.7400000000138 30.98000000000564 0  206.8600000000162 30.62000000000662 0  205.9800000000174 30.26000000000711 0  204.2000000000054 30.02499999999925 0  203.2999999999946 30.15000000000076 0  202.3999999999945 30.27500000000076 0  201.2444444444438 31.32222222222468 0  200.9888888888895 32.24444444
[...]
<PointData  Vectors="f_12"> 
<DataArray  type="Float64"  Name="f_12"  NumberOfComponents="3" format="ascii">1.1950738916256146e-02 1.3838404669260687e-02 6.2431906614785941e-03  1.1950738916256148e-02 1.3838404669260685e-02 6.2431906614785933e-03  1.1950738916256148e-02 1.3838404669260689e-02 6.2431906614785933e-03  1.1950738916256145e-02 1.3838404669260673e-02 6.2431906614785881e-03  1.1950738916256145e-02 1.3838404669260685e-02 6.2431906614785915e-03  1.1950738916256141e-02 1.3838404669260682e-02 6.2431906614785924e-03  1.1950738916256143e-02 1.3838404669260682e-02 6.2431906614785915e-03  1.1950738916256146e-02 1.3838404669260691e-02 6.2431906614785959e-03  1.1950738916256145e-02 1.3838404669260684e-02 6.2431906614785933e-03  1.1950738916256141e-02 1.3838404669260675e-02 6.2431906614785933e-03  1.1950738916256138e-02 1.3838404669260734e-02 6.2431906614787026e-03  1.1950738916256039e-02 1.3838404669262991e-02 6.2431906614846596e-03  1.1950738882199052e-02 1.3838405444574792e-02 6.2431926994690060e-03  3.9935368641910735e-03 1.6455023870400146e-01 5.2120320484465832e-01  3.3934100226616628e-03 1.9727315443171448e-01 4.2381909364892673e-01  3.4828945179093008e-03 2.3126936809970813e-01 6.3674416850683935e-01  2.7512282792269117e-03 2.9357594739037746e-01 4.5878635816784502e-01  3.7933910942278214e-03 2.3332027578964110e-01 5.6217176066779750e-01  3.5420407452466762e-03 1.7436892838586768e-01 4.7971967553639155e-01  2.2726228229709359e-03 2.1359748821308105e-01 4.8488532438814458e-01  2.6269593545812206e-03 2.0526213399016680e-01 5.2747501706831312e-01  3.7367749048689645e-03 2.9231158475562885e-01 4.1720366502978184e-01  2.2065129839678854e-03 2.2395018517361237e-01 5.0836573060665768e-01  3.8658051162580595e-03 2.2298441574424074e-01 4.1313555768193461e-01  3.0001493481366026e-03 3.3782669408172106e-01 4.9113728375685789e-01  3.1899089791579014e-03 2.7279196914887910e-01 5.0436380279755233e-01  2.7160326333536115e-03 2.6932825025634599e-01 5.2575393458552155e-01  3.4453378586070649e-03 2.8636578117746458e-01 5.5210812147942401e-01  3.2646555629651233e-03 2.1924749024116735e-01 5.1003327372542084e-01  3.1861314518757083e-03 2.2779301554559334e-01 5.3738418282699085e-01  3.6041876866557236e-03 2.6289926480758169e-01 4.6180496248101688e-01  3.9157105261627924e-03 1.9858998434516140e-01 4.7119669788071794e-01  2.2355934606229869e-03 1.6128456228121510e-01 4.5525232615488148e-01  2.3829170646660716e-03 1.9716987460509583e-01 4.8451014723186958e-01  3.4833868043507902e-03 3.1243134036973363e-01 5.4654923636879993e-01  3.5162751530075811e-03 2.7337247389435354e-01 4.9034247332646663e-01  3.3427867455826932e-03 2.3379771032790397e-01 5.5462789715609961e-01  3.3241388751303340e-03 2.1674032259977505e-01 4.4429587351460498e-01  3.1260523612278582e-03 1.9024650489669553e-01 4.6036551718262447e-01  3.7420597863897986e-03 2.1269363997292667e-01 5.0280246155043795e-01  2.8784913539496222e-03 2.3550371534136993e-01 5.3233898517153044e-01  2.7519688756426257e-03 2.5112449477448945e-01 4.8333694830572987e-01  1.9945121608241187e-03 3.5306995079544268e-01 5.5483975399687291e-01  3.2587156289417998e-03 2.7952442600783695e-01 4.4897478079441022e-01  2.5365851033558591e-03 1.6842206196781673e-01 3.9715969918247829e-01  2.5303459738032436e-03 2.9687258624316354e-01 5.1332991250776216e-01  2.6058708886254165e-03 2.1705118343833146e-01 5.3281426027542633e-01  4.1014262344834249e-03 2.3995958716465138e-01 4.5868282387302606e-01  2.0648829287234355e-03 2.6882545187895651e-01 4.5475987160890496e-01  3.8366484138370803e-03 1.8164515721664498e-01 4.1293787164734336e-01  4.3941914244291077e-03 2.4440218238532438e-01 4.4136988433496316e-01  3.6642778805302625e-03 2.6738374461310671e-01 5.2339824501742149e-01  3.4370150403555278e-03 2.2036973490582534e-01 4.1476858558728924e-01  1.1604137229193312e-02 1.8966630303500067e-02 2.2355383554645929e-02  1.1946365640332947e-02 1.3917321310647457e-02 6.4439528182236019e-03  1.1950737682328984e-02 1.3838433363358417e-02 6.2432436464554351e-03  1.1950736726697579e-02 1.3838454401028735e-02 6.2432940806155133e-03  1.1950738915951145e-02 1.3838404675883891e-02 6.2431906768095997e-03  1.1950738916252056e-02 1.3838404669349488e-02 6.2431906616843766e-03  1.1950738916256145e-02 1.3838404669260724e-02 6.2431906614786861e-03  1.1950738916256145e-02 1.3838404669260685e-02 6.2431906614785933e-03  1.1950738916256150e-02 1.3838404669260687e-02 6.2431906614785933e-03  1.1950738916256146e-02 1.3838404669260682e-02 6.2431906614785933e-03  1.1950738916256138e-02 1.3838404669260687e-02 6.2431906614785950e-03  1.1950738916256143e-02 1.3838404669260682e-02 6.2431906614785907e-03  1.1950738916256131e-02 1.3838404669260691e-02 6.2431906614785933e-03  1.1950738916256145e-02 1.3838404669260680e-02 6.2431906614785915e-03  1.1950738916256148e-02 1.3838404669260687e-02 6.2431906614785933e-03  1.1950738916256150e-02 1.3838404669260691e-02 6.2431906614785959e-03  1.1950738916256151e-02 1.3838404669260692e-02 6.2431906614785941e-03  1.1950738916256146e-02 1.3838404669260691e-02 6.2431906614785933e-03  1.1950738916256150e-02 1.3838404669260687e-02 6.2431906614785941e-03  1.1950738916256146e-02 1.3838404669260684e-02 6.2431906614785924e-03  1.1950738916256143e-02 1.3838404669260684e-02 6.2431906614785924e-03  1.1950738916256148e-02 1.3838404669260675e-02 6.2431906614785881e-03  1.1950738916256139e-02 1.3838404669260680e-02 6.2431906614785881e-03  1.1950738916256143e-02 1.3838404669260696e-02 6.2431906614785950e-03  1.1950738916256148e-02 1.3838404669260691e-02 6.2431906614785915e-03  1.1950738916256146e-02 1.3838404669260685e-02 6.2431906614785933e-03  1.1950738916256145e-02 1.3838404669260689e-02 6.2431906614785933e-03  1.1950738916256150e-02 1.3838404669260691e-02 6.2431906614785950e-03  1.1950738916256150e-02 1.3838404669260691e-02 6.2431906614785941e-03  1.1950738916256150e-02 1.3838404669260694e-02 6.2431906614785933e-03  1.1950738916256146e-02 1.3838404669260687e-02 6.2431906614785941e-03  1.1950738916256151e-02 1.3838404669260689e-02 6.2431906614785950e-03  1.1950738916256150e-02 1.3838404669260691e-02 6.2431906614785950e-03  1.1950738916256141e-02 1.3838404669260687e-02 6.2431906614785959e-03  1.1950738916256148e-02 1.3838404669260689e-02 6.2431906614785950e-03  1.1950738916256148e-02 1.3838404669260687e-02 6.2431906614785933e-03  1.1950738916256150e-02 1.3838404669260689e-02 6.2431906614785933e-03  1.1950738916256150e-02 1.3838404669260694e-02 6.2431906614785959e-03  1.1950738916256150e-02 1.3838404669260691e-02 6.2431906614785950e-03  1.1950738916256150e-02 1.3838404669260689e-02 6.2431906614785933e-03  1.1950738916256157e-02 1.3838404669260689e-02 6.2431906614785924e-03  1.1950738916256146e-02 1.3838404669260685e-02 6.2431906614785924e-03  1.1950738916256145e-02 1.3838404669260689e-02 6.2431906614785941e-03  1.1950738916256148e-02 1.3838404669260691e-02 6.2431906614785941e-03  1.1950738916256150e-02 1.3838404669260685e-02 6.2431906614785950e-03  1.1950738916256145e-02 1.3838404669260684e-02 6.2431906614785924e-03  1.1950738916256145e-02 1.3838404669260689e-02 6.2431906614785924e-03  1.1950738916256148e-02 1.3838404669260687e-02 6.2431906614785941e-03  1.1950738916256151e-02 1.3838404669260685e-02 6.2431906614785915e-03  1.1950738916256151e-02 1.3838404669260691e-02 6.2431906614785941e-03  1.1950738916256153e-02 1.3838404669260698e-02 6.2431906614785967e-03  1.1950738916256150e-02 1.3838404669260687e-02 6.2431906614785941e-03  1.1950738916256148e-02 1.3838404669260689e-02 6.2431906614785959e-03  1.1950738916256150e-02 1.3838404669260687e-02 6.2431906614785933e-03  1.1950738916256148e-02 1.3838404669260684e-02 6.2431906614785915e-03  1.1950738916256151e-02 1.3838404669260692e-02 6.2431906614785950e-03  1.1950738916256151e-02 1.3838404669260696e-02 6.2431906614785959e-03  1.1950738916256146e-02 1.3838404669260699e-02 6.2431906614785967e-03  1.1950738916256150e-02 1.3838404669260691e-02 6.2431906614785959e-03  1.1950738916256146e-02 1.3838404669260687e-02 6.2431906614785941e-03  1.1950738916256145e-02 1.3838404669260689e-02 6.2431906614785924e-03  1.1950738916256138e-02 1.3838404669260684e-02 6.2431906614785941e-03  1.1950738916256148e-02 1.3838404669260687e-02 6.2431906614785941e-03  1.1950738916256146e-02 1.3838404669260685e-02 6.2431906614785924e-03  1.1950738916256151e-02 1.3838404669260691e-02 6.2431906614785933e-03  1.1950738916256145e-02 1.3838404669260684e-02 6.2431906614785872e-03  1.1950738916256146e-02 1.3838404669260687e-02 6.2431906614785933e-03  1.1950738916256150e-02 1.3838404669260689e-02 6.2431906614785941e-03  1.1950738916256143e-02 1.3838404669260689e-02 6.2431906614785924e-03  1.1950738916256150e-02 1.3838404669260694e-02 6.2431906614785950e-03  1.1950738916256148e-02 1.3838404669260692e-02 6.2431906614785950e-03  1.1950738916256148e-02 1.3838404669260687e-02 6.2431906614785924e-03  1.1950738916256146e-02 1.3838404669260684e-02 6.2431906614785898e-03  1.1950738916256146e-02 1.3838404669260685e-02 6.2431906614785915e-03  1.1950738916256146e-02 1.3838404669260685e-02 6.2431906614785950e-03  1.1950738916256143e-02 1.3838404669260684e-02 6.2431906614785950e-03  1.1950738916256151e-02 1.3838404669260692e-02 6.2431906614785967e-03  1.1950738916256148e-02 1.3838404669260691e-02 6.2431906614785967e-03  1.1950738916256146e-02 1.3838404669260685e-02 6.2431906614785933e-03  1.1950738916256148e-02 1.3838404669260687e-02 6.2431906614785941e-03  1.1950738916256148e-02 1.3838404669260687e-02 6.2431906614785941e-03  1.1950738916256150e-02 1.3838404669260691e-02 6.2431906614785941e-03  1.1950738916256150e-02 1.3838404669260682e-02 6.2431906614785924e-03  1.1950738916256148e-02 1.3838404669260685e-02 6.2431906614785941e-03  1.1950738916256146e-02 1.3838404669260685e-02 6.2431906614785941e-03  1.1950738916256145e-02 1.3838404669260691e-02 6.2431906614785933e-03  1.1950738916256146e-02 1.3838404669260687e-02 6.2431906614785941e-03  1.1950738916256148e-02 1.3838404669260696e-02 6.2431906614785941e-03  1.1950738916256151e-02 1.3838404669260696e-02 6.2431906614785967e-03  1.1950738916256148e-02 1.3838404669260691e-02 6.2431906614785924e-03  1.1950738916256139e-02 1.3838404669260677e-02 6.2431906614785898e-03  1.1950738916256150e-02 1.3838404669260689e-02 6.2431906614785933e-03  1.1950738916256148e-02 1.3838404669260687e-02 6.2431906614785941e-03  1.1950738916256145e-02 1.3838404669260689e-02 6.2431906614785967e-03  1.1950738916256150e-02 1.3838404669260687e-02 6.2431906614785950e-03  1.1950738916256146e-02 1.3838404669260689e-02 6.2431906614785941e-03  1.1950738916256146e-02 1.3838404669260689e-02 6.2431906614785959e-03  1.1950738916256148e-02 1.3838404669260692e-02 6.2431906614785941e-03  1.1950738916256150e-02 1.3838404669260689e-02 6.2431906614785941e-03  1.1950738916256148e-02 1.3838404669260687e-02 6.2431906614785933e-03  1.1950738916256145e-02 1.3838404669260692e-02 6.2431906614785941e-03  1.1950738916256148e-02 1.3838404669260691e-02 6.2431906614785967e-03  1.1950738916256146e-02 1.3838404669260691e-02 6.2431906614786002e-03  1.1950738916256151e-02 1.3838404669260703e-02 6.2431906614786236e-03  1.1950738916256139e-02 1.3838404669260809e-02 6.2431906614789099e-03  1.1950738916256134e-02 1.3838404669260958e-02 6.2431906614793106e-03  1.1950738916256119e-02 1.3838404669261277e-02 6.2431906614801519e-03  1.1950738916256091e-02 1.3838404669261919e-02 6.2431906614818337e-03  1.1950738916255865e-02 1.3838404669267036e-02 6.2431906614952995e-03  1.1950738916255090e-02 1.3838404669284814e-02 6.2431906615420286e-03  1.1950738916252103e-02 1.3838404669352405e-02 6.2431906617197337e-03  1.1950738916240360e-02 1.3838404669619029e-02 6.2431906624206088e-03  1.1950738916195486e-02 1.3838404670638479e-02 6.2431906651002050e-03  1.1950738916026370e-02 1.3838404674482460e-02 6.2431906752033420e-03  1.1950738915400404e-02 1.3838404688716921e-02 6.2431907126148812e-03  1.1950738913167835e-02 1.3838404739507747e-02 6.2431908461067741e-03  1.1950738905555373e-02 1.3838404912771324e-02 6.2431913015174936e-03  1.1950738770075315e-02 1.3838407998121669e-02 6.2431994126707956e-03  1.1950738213395538e-02 1.3838420680023935e-02 6.2432327592222489e-03  1.1950735667646433e-02 1.3838478686888128e-02 6.2433853203089093e-03  1.1950723086711097e-02 1.3838765395016597e-02 6.2441398917716809e-03  1.1950663208487550e-02 1.3840129888321052e-02 6.2477342155203668e-03  1.1950378413091144e-02 1.3846616444508100e-02 6.2648458959078017e-03  1.1948991422629921e-02 1.3878166706177976e-02 6.3482657952416977e-03  1.1942139122942376e-02 1.4033598711826340e-02 6.7607765748917779e-03  1.1908978011332796e-02 1.4782473737651973e-02 8.7579944481564719e-03  1.1724035468306186e-02 1.8820023910884952e-02 1.9866100978455897e-02  1.0765644191190969e-02 3.9006037730393767e-02 7.7195449645848457e-02  7.3178667716978403e-03 1.2049414181219655e-01 2.9469132712008650e-01  4.3675029353564326e-03 2.1398202239901726e-01 4.6538338819325237e-01  4.3346313667558855e-03 1.7834874562680891e-01 4.8593620322839420e-01  4.1034982987866869e-03 1.8479503899381630e-01 5.2830241234419528e-01  3.2331127387497547e-03 1.6897779651274233e-01 4.1959974577749365e-01  2.2970809704322744e-03 2.3817933220287871e-01 4.1725547828180676e-01  2.7582633290650083e-03 2.5223788093720861e-01 4.8987262541471371e-01  2.8857706865794762e-03 2.7952634957169475e-01 5.1031633180414926e-01  3.3319672647165277e-03 2.5723585371450047e-01 5.0030857076869761e-01  4.0322839061464159e-03 2.0576835894590223e-01 4.7126726949161180e-01  3.9739210410737850e-03 1.6783394017593267e-01 3.9218887108462275e-01  2.6660182161401280e-03 2.6490636789212196e-01 4.5885101325698036e-01  2.8600897810825412e-03 2.4365081469422431e-01 5.0262854481434072e-01  2.4305002426596436e-03 2.1311441374901452e-01 4.9840282882426434e-01  2.5078769442421814e-03 2.1584205813481727e-01 4.2970296227389632e-01  3.0868927721759715e-03 2.4126631717397543e-01 4.5084069263668231e-01  3.0826314747869473e-03 2.1844275170141791e-01 4.8208241767299426e-01  3.4791379047345084e-03 2.4218914107777351e-01 5.5628414093210754e-01  3.3406454215883737e-03 2.3136964715622865e-01 6.1868890162486523e-01  3.3369032543978921e-03 2.4260216142590432e-01 6.1419189055538281e-01  2.2221495096531917e-03 2.4919495219936211e-01 5.2197333144298319e-01  2.0538949929042195e-03 2.2187003185985563e-01 4.5509312707617239e-01  2.5953237002468792e-03 2.8114758474671170e-01 4.6951541223185300e-01  2.8365177790602601e-03 2.1975256775107727e-01 5.1182206459093749e-01  2.9423193010460493e-03 1.9255832193110411e-01 5.1004240548440860e-01  2.8267070141149249e-03 1.8452449663569054e-01 5.0469221112767793e-01  2.9628329331465343e-03 2.3288319279727254e-01 5.1493649411168596e-01  3.1769343228848085e-03 2.7399816226093532e-01 6.0421906470464681e-01  3.6696618627567864e-03 2.5604084000938820e-01 6.3084810017301896e-01  3.2863489252078124e-03 2.2652589216724500e-01 5.2606067221264008e-01  4.3173674156451710e-03 2.4834251404571961e-01 5.5500010396315957e-01  3.9133611616059064e-03 2.9513725409878672e-01 5.0970264645199415e-01  3.1647689927299179e-03 3.1518146872435460e-01 4.6273596842145703e-01  3.0181854782755499e-03 3.0898054657931528e-01 4.2852575289748146e-01  2.9223373740416953e-03 3.1104132802057050e-01 4.4244364292002014e-01  2.3986647289004704e-03 2.9043956558218920e-01 4.6934433588529556e-01  2.7083346047120150e-03 2.2343467340771597e-01 4.5688074350414370e-01  2.8857296999877761e-03 1.9975203700887667e-01 4.5804258402606085e-01  3.0909043287697105e-03 2.4131906001581471e-01 5.4222611967434065e-01  3.4190707880992011e-03 2.3036910593645493e-01 4.9514229396179399e-01  2.8264081431160376e-03 2.0261971182374469e-01 4.2082496495164368e-01  2.6415474262892731e-03 1.9736811310656491e-01 4.3516792692483458e-01  2.8495746133015659e-03 2.3492667610613605e-01 4.6776977842193301e-01  3.1100490069683878e-03 2.2829627414812598e-01 5.2189322572235286e-01  1.9562314261802865e-03 2.3675258885262068e-01 4.8000876888142263e-01  2.0509999098319671e-03 2.4066144327059930e-01 5.3915143437722179e-01  2.4093840533197081e-03 2.9300199455197362e-01 5.8370877861461135e-01  2.2523702997170663e-03 2.6953668788082497e-01 5.9980091162676930e-01  2.8432469009905190e-03 2.0883908022061676e-01 5.4681050702024137e-01  2.9027611923256626e-03 2.1783425343065627e-01 5.1859192443244506e-01  2.4334537845445941e-03 2.1794748458985605e-01 4.5356437405345851e-01  2.5135409324496412e-03 1.9625020794246162e-01 3.9500080695864126e-01  3.3121235780997132e-03 2.6811294941513508e-01 3.9616518507066595e-01  3.1950823549861777e-03 2.5906677669132433e-01 3.9249025074033467e-01  2.4839056146906957e-03 1.8513435363489300e-01 4.0657388375307713e-01  2.8769476436148111e-03 2.0805351351978549e-01 4.8613251323618983e-01  2.2689354177790459e-03 2.2827911183517963e-01 4.8760269643484505e-01  2.7462941592875552e-03 2.6289003960248425e-01 5.5759993014305620e-01  2.7542265498491322e-03 2.4033853258639515e-01 5.5415672752067324e-01  3.2248403867581269e-03 1.9656391666704209e-01 5.3489461869141763e-01  3.9161594617764181e-03 2.7373724448161835e-01 5.5950683203187412e-01  4.3435574561468899e-03 2.9573034797401204e-01 5.1761197878346843e-01  4.0871164121702303e-03 3.2200015130935611e-01 5.4055397709104269e-01  3.5855621247051694e-03 2.7156279098013053e-01 5.0167421921811139e-01  2.7852731475501618e-03 2.7328101779810832e-01 4.4768817370795860e-01  2.2173895732240582e-03 2.3121016195003624e-01 5.7282443588401721e-01  2.0094093052464021e-03 2.2395241454165438e-01 5.8675205523899010e-01  2.3824112861740693e-03 2.8379742952476844e-01 4.8914821566589051e-01  2.9413038993666291e-03 2.3247879370489200e-01 4.5398699645169377e-01  2.9582080937515464e-03 1.5706829004882394e-01 4.0272372834296116e-01  3.0701136336223215e-03 2.2912505716902082e-01 4.3562165295551974e-01  3.0403287576010801e-03 3.1860050684534241e-01 5.3127736828985306e-01  2.9916747496476367e-03 3.3184773126416839e-01 5.2594160145257107e-01  2.6906455871475903e-03 2.9201945062545931e-01 5.2977553503947972e-01  3.0812733817582685e-03 2.4418870255575001e-01 4.9286828666484811e-01  2.8808628188111926e-03 3.1639589799030027e-01 5.2897980576739501e-01  2.5656651735363129e-03 3.3456838320739685e-01 5.3561207431902225e-01  2.5735106886153550e-03 3.0696060451262380e-01 4.6653924355177157e-01  2.9496611466852218e-03 2.3800180526949830e-01 4.5433420369525285e-01  3.7075101724928015e-03 2.3461487552756116e-01 4.3570074079884819e-01  3.9531586323812576e-03 1.9660818997513191e-01 3.9525253195053500e-01  3.1430518381455573e-03 2.1171149001163314e-01 4.2330232055425798e-01  2.8142382188619170e-03 2.2866566281718248e-01 5.1790770511581286e-01  2.6078461312552662e-03 2.9929862047854039e-01 5.4367199285085832e-01  2.5137985332694488e-03 3.0336653535146779e-01 5.4222830571308556e-01  2.0978459919529730e-03 2.4977051848641996e-01 5.0653331742860086e-01  2.6819955853617165e-03 2.0521298613868663e-01 4.8717446089761118e-01  3.4404642095175312e-03 2.3642933522414250e-01 4.9712913926931290e-01  2.8889260968986952e-03 2.7310669475978316e-01 5.2372154778685687e-01  4.1945185392453293e-03 2.3185754470202000e-01 5.1592604145219223e-01  4.1457330337087055e-03 2.5487738461141196e-01 5.4292325201047642e-01  3.7753255496767129e-03 2.9249524228529589e-01 5.5437155756561640e-01  3.7698744422768422e-03 2.3305654770371517e-01 5.2543659326915937e-01  3.3335741208446569e-03 2.5285480903285507e-01 5.6181013312031836e-01  3.8024955372851698e-03 2.6046336303571338e-01 6.1844240298375341e-01  4.1327283446993598e-03 2.9900736700941777e-01 6.2090326057852918e-01  2.6902727338147833e-03 1.8097934722103559e-01 5.2497599030188002e-01  2.6453160043427354e-03 1.9322090002580669e-01 5.2792724674452129e-01  3.0193364410015622e-03 1.8807884062768077e-01 4.6988021172766292e-01  2.9575717883480331e-03 1.7971514648205147e-01 4.2943327850947283e-01  2.7282343927502021e-03 2.3469777078283072e-01 4.4268936709575030e-01  3.5908291530809956e-03 2.5393689812233411e-01 5.2383281156096240e-01  3.6017685190273077e-03 2.4773760336781459e-01 4.8368772228780305e-01  3.7763283940