<?xml version="1.0"?>
<VTKFile type="UnstructuredGrid"  version="0.1"  >
<UnstructuredGrid>
<Piece  NumberOfPoints="7288" NumberOfCells="14083">
<Points>
<DataArray  type="Float64"  NumberOfComponents="3"  format="ascii">239.8 188 0  250.2 180 0  258.2 172.4 0  257 169.4 0  259.9 157.4 0  258.7 150.3 0  261 143.5 0  251.7 144.4 0  250 138.7 0  247 138.1 0  245.2 130.8 0  247.3 126.4 0  242.7 118.6 0  231.2 107.7 0  226 102.4 0  226.5 93.90000000000001 0  224.5 91.19999999999999 0  224.5 84.09999999999999 0  234.5 73.80000000000001 0  228.4 68.90000000000001 0  230 70 0  233.4 68 0  222.7 61.5 0  220.6 45.5 0  223.4 49.40000000000001 0  224 47 0  221.8 43.09999999999999 0  221 38.40000000000001 0  219.5 38.5 0  219.4 41.69999999999999 0  217.1 36.90000000000001 0  209.7 36 0  209.5 31.69999999999999 0  205.1 29.90000000000001 0  201.5 30.40000000000001 0  199.2 38.69999999999999 0  201.8 41.40000000000001 0  194.8 53.80000000000001 0  196.1 57.69999999999999 0  193 59 0  191.4 66.09999999999999 0  193.5 66.5 0  194.1 64.40000000000001 0  195.6 64.69999999999999 0  195.4 72.40000000000001 0  199.5 77.30000000000001 0  197.7 86.90000000000001 0  200.6 87.5 0  201.5 91 0  198 94.80000000000001 0  198.6 100 0  197.3 105.4 0  198 109.5 0  197 112.7 0  198.3 116.1 0  201.3 122 0  207.2 121 0  208.1 126.7 0  205.6 127.9 0  209.1 134.9 0  210.9 144.4 0  210.1 147.9 0  213 148.4 0  215.4 149.3 0  215.1 152.8 0  219.9 159.7 0  220.3 163.2 0  218.7 164.9 0  219.9 166.7 0  221.9 169.7 0  220 170.3 0  224.9 174.7 0  229.8 177.4 0  229.7 181 0  228 172.9 0  239 178 0  240.4 180 0  239 181.5 0  241.2 185.9 0  242.95 187.99 0  240.5875 187.9975 0  241.375 187.995 0  242.1625 187.9925 0  243.6090909090879 187.2636363636397 0  244.2681818181765 186.5372727272785 0  244.9272727272692 185.810909090913 0  245.5863636363531 185.0845454545571 0  246.245454545445 184.3581818181923 0  246.9045454545351 183.6318181818295 0  247.5636363636303 182.9054545454612 0  248.2227272727197 182.1790909090992 0  248.8818181818179 181.4527272727275 0  249.5409090909066 180.7263636363664 0  250.8666666666961 179.3666666666387 0  251.5333333334033 178.7333333332668 0  252.2000000000994 178.0999999999055 0  252.8666666668011 177.466666666539 0  253.5333333335083 176.8333333331671 0  254.2000000002044 176.1999999998058 0  254.8666666669005 175.5666666664445 0  255.5333333336077 174.9333333330727 0  256.2000000002685 174.2999999997449 0  256.8666666668457 173.6666666664966 0  257.5333333334283 173.033333333243 0  257.9000000000077 171.6500000000191 0  257.6000000000015 170.9000000000038 0  257.2999999999954 170.1499999999885 0  257.2230769230778 168.4769230769195 0  257.4461538461543 167.5538461538442 0  257.6692307692309 166.6307692307688 0  257.8923076923074 165.7076923076935 0  258.115384615384 164.7846153846181 0  258.3384615384605 163.8615384615427 0  258.5615384615395 162.9384615384572 0  258.784615384616 162.0153846153819 0  259.0076923076926 161.0923076923065 0  259.2307692307691 160.1692307692311 0  259.4538461538457 159.2461538461558 0  259.6769230769222 158.3230769230804 0  259.750000000001 156.512500000006 0  259.6000000000014 155.6250000000082 0  259.4500000000029 154.7375000000176 0  259.3000000000018 153.8500000000108 0  259.1500000000007 152.962500000004 0  259.0000000000004 152.0750000000026 0  258.849999999999 151.187499999994 0  258.9875000000052 149.4499999999846 0  259.275000000002 148.5999999999941 0  259.5624999999954 147.7500000000135 0  259.849999999995 146.900000000015 0  260.1374999999945 146.0500000000164 0  260.4249999999913 145.2000000000259 0  260.7124999999948 144.3500000000154 0  260.0700000000398 143.5899999999961 0  259.1400000000573 143.6799999999944 0  258.2100000000351 143.7699999999966 0  257.2800000000262 143.8599999999975 0  256.350000000011 143.9499999999989 0  255.4199999999881 144.0400000000011 0  254.4899999999726 144.1300000000026 0  253.5599999999944 144.2200000000005 0  252.6300000000009 144.3099999999999 0  251.4166666666658 143.4499999999971 0  251.1333333333388 142.5000000000182 0  250.8500000000015 141.5500000000051 0  250.5666666666612 140.5999999999818 0  250.2833333333342 139.6500000000029 0  249.2500000000005 138.5500000000001 0  248.5000000000011 138.4000000000002 0  247.7499999999995 138.2499999999999 0  246.7750000000005 137.1875000000023 0  246.5500000000021 136.2750000000085 0  246.3250000000036 135.3625000000147 0  246.1000000000042 134.450000000017 0  245.8750000000022 133.5375000000088 0  245.650000000003 132.6250000000124 0  245.4250000000046 131.7125000000187 0  245.619999999996 129.9200000000084 0  246.0399999999992 129.0400000000017 0  246.4599999999987 128.1600000000028 0  246.8800000000001 127.2799999999997 0  246.8399999999988 125.6199999999979 0  246.3799999999984 124.8399999999973 0  245.9199999999991 124.0599999999985 0  245.4600000000036 123.2800000000062 0  245.0000000000049 122.5000000000082 0  244.5400000000036 121.7200000000062 0  244.0800000000033 120.9400000000056 0  243.6200000000016 120.1600000000027 0  243.1600000000012 119.3800000000021 0  241.9812499999996 117.9187499999997 0  241.2625000000007 117.2375000000007 0  240.5437500000017 116.5562500000017 0  239.8250000000041 115.875000000004 0  239.1062500000066 115.1937500000063 0  238.3875000000076 114.5125000000072 0  237.6687500000087 113.8312500000082 0  236.9500000000083 113.1500000000079 0  236.231250000008 112.4687500000076 0  235.512500000009 111.7875000000085 0  234.7937500000045 111.1062500000043 0  234.0750000000042 110.4250000000039 0  233.3562500000066 109.7437500000062 0  232.6375000000021 109.062500000002 0  231.9187500000031 108.381250000003 0  230.5500000000004 107.0375000000004 0  229.9000000000021 106.3750000000021 0  229.2500000000038 105.7125000000039 0  228.6000000000041 105.0500000000042 0  227.9500000000018 104.3875000000018 0  227.2999999999952 103.7249999999951 0  226.6500000000024 103.0625000000024 0  226.0555555555555 101.4555555555556 0  226.1111111111111 100.5111111111111 0  226.1666666666667 99.56666666666668 0  226.2222222222222 98.62222222222223 0  226.2777777777778 97.67777777777778 0  226.3333333333333 96.73333333333335 0  226.3888888888889 95.78888888888889 0  226.4444444444445 94.84444444444446 0  226 93.22499999999999 0  225.5000000000026 92.55000000000358 0  225.0000000000026 91.87500000000358 0  224.5 90.31250000000068 0  224.5 89.4250000000097 0  224.5 88.53750000001317 0  224.5 87.65000000001388 0  224.5 86.76250000001457 0  224.5 85.87500000001248 0  224.5 84.9874999999993 0  225.1666666666659 83.41333333333409 0  225.8333333333319 82.72666666666818 0  226.4999999999978 82.04000000000228 0  227.1666666666649 81.35333333333514 0  227.8333333333301 80.66666666667 0  228.4999999999942 79.980000000006 0  229.1666666666601 79.2933333333401 0  229.8333333333316 78.60666666666847 0  230.4999999999975 77.92000000000257 0  231.1666666666644 77.23333333333572 0  231.8333333333295 76.54666666667057 0  232.4999999999972 75.86000000000287 0  233.1666666666681 75.17333333333181 0  233.8333333333368 74.48666666666306 0  233.7499999999995 73.16666666666629 0  233.0000000000018 72.53333333333488 0  232.2500000000014 71.90000000000116 0  231.5000000000009 71.26666666666743 0  230.7500000000005 70.63333333333372 0  229.233333333333 68.75000000000006 0  230.0666666666665 68.60000000000004 0  230.8999999999995 68.45000000000009 0  231.7333333333325 68.30000000000015 0  232.566666666667 68.14999999999995 0  232.5499999999897 68.50000000000607 0  231.7 69 0  230.8500000000103 69.49999999999393 0  227.8300000000008 68.16000000000106 0  227.2600000000064 67.42000000000837 0  226.6900000000077 66.68000000001001 0  226.1200000000024 65.94000000000314 0  225.5500000000108 65.20000000001409 0  224.9800000000098 64.46000000001268 0  224.4100000000007 63.72000000000098 0  223.8399999999971 62.97999999999621 0  223.2699999999993 62.23999999999915 0  222.753846153846 60.56923076923239 0  222.8076923076921 59.63846153846478 0  222.8615384615381 58.70769230769827 0  222.9153846153842 57.77692307693071 0  222.9692307692302 56.84615384616315 0  223.0230769230761 55.91538461539836 0  223.0769230769224 54.98461538462665 0  223.1307692307688 54.05384615385345 0  223.184615384615 53.12307692308312 0  223.2384615384611 52.19230769231556 0  223.2923076923071 51.26153846154906 0  223.3461538461533 50.33076923077847 0  222.8400000000024 48.62000000000327 0  222.2800000000047 47.84000000000661 0  221.7200000000005 47.06000000000071 0  221.1600000000003 46.28000000000039 0  221.4500000000116 45.87500000000512 0  222.3 46.25 0  223.1499999999884 46.62499999999488 0  223.5600000000055 46.22000000000981 0  223.1199999999987 45.43999999999767 0  222.6800000000061 44.66000000001075 0  222.2399999999969 43.8799999999944 0  221.6400000000004 42.16000000000253 0  221.4800000000009 41.22000000000548 0  221.3200000000014 40.28000000000801 0  221.1600000000009 39.34000000000556 0  220.25 38.45 0  219.4749999999999 39.30000000000165 0  219.45 40.09999999999999 0  219.425 40.90000000000112 0  219.0166666666641 40.89999999999463 0  218.6333333333375 40.10000000000875 0  218.2500000000016 39.30000000000339 0  217.8666666666635 38.49999999999351 0  217.483333333337 37.70000000000762 0  216.1750000000165 36.78750000000201 0  215.2500000000275 36.67500000000335 0  214.3250000000385 36.56250000000469 0  213.4000000000277 36.45000000000337 0  212.4750000000059 36.33750000000072 0  211.5499999999838 36.22499999999803 0  210.6249999999835 36.11249999999799 0  209.6600000000001 35.14000000000318 0  209.6200000000001 34.28000000000268 0  209.5800000000001 33.42000000000284 0  209.5399999999998 32.55999999999681 0  208.6200000000117 31.34000000000476 0  207.7400000000138 30.98000000000564 0  206.8600000000162 30.62000000000662 0  205.9800000000174 30.26000000000711 0  204.2000000000054 30.02499999999925 0  203.2999999999946 30.15000000000076 0  202.3999999999945 30.27500000000076 0  201.2444444444438 31.32222222222468 0  200.9888888888895 32.24444444
[...]
<PointData  Vectors="f_12"> 
<DataArray  type="Float64"  Name="f_12"  NumberOfComponents="3" format="ascii">1.1950495049504940e-02 1.4828404669260690e-02 6.2431906614785941e-03  1.1950495049504933e-02 1.4828404669260685e-02 6.2431906614785933e-03  1.1950495049504940e-02 1.4828404669260687e-02 6.2431906614785933e-03  1.1950495049504933e-02 1.4828404669260680e-02 6.2431906614785881e-03  1.1950495049504939e-02 1.4828404669260687e-02 6.2431906614785915e-03  1.1950495049504933e-02 1.4828404669260681e-02 6.2431906614785924e-03  1.1950495049504935e-02 1.4828404669260681e-02 6.2431906614785915e-03  1.1950495049504935e-02 1.4828404669260688e-02 6.2431906614785959e-03  1.1950495049504937e-02 1.4828404669260683e-02 6.2431906614785933e-03  1.1950495049504933e-02 1.4828404669260675e-02 6.2431906614785933e-03  1.1950495049504940e-02 1.4828404669260751e-02 6.2431906614786878e-03  1.1950495049504836e-02 1.4828404669264611e-02 6.2431906614840637e-03  1.1950495015987295e-02 1.4828406008870615e-02 6.2431925310645169e-03  2.9223607025136004e-03 2.3653045467561704e-01 5.3790423570220403e-01  1.8889450040064084e-03 2.5521146920337001e-01 5.2873135838791985e-01  2.3854908906851460e-03 3.1520202768184330e-01 5.9663515821957180e-01  2.8110436456411877e-03 2.4586053520716206e-01 5.1546272009250305e-01  3.6178570792707821e-03 3.3715912652859298e-01 4.6531007883994135e-01  3.3768368146378388e-03 2.3944569233774390e-01 4.3229533826013083e-01  2.9557152870305259e-03 2.1804130666371185e-01 4.8911211771669577e-01  2.9087202922736298e-03 2.4616561118899960e-01 5.1515068337879366e-01  2.8258038879459641e-03 2.2975189970343474e-01 5.0193815571199385e-01  3.0504652026935217e-03 3.2947915957824897e-01 4.3256090428941429e-01  3.9954937569738848e-03 2.0542972884918534e-01 5.1844645097515385e-01  3.7874743149113668e-03 2.3266926750512498e-01 4.6833921466288869e-01  3.9094696861604822e-03 3.2942353422743381e-01 5.3409821050809814e-01  2.2437706680815076e-03 2.2838776243654260e-01 5.0611978616069364e-01  2.2555263496912134e-03 3.1694876217124091e-01 5.4228297489684285e-01  2.8973300726962818e-03 3.2512778155699557e-01 5.2744726023687649e-01  3.1309897541453736e-03 2.2510481703197113e-01 5.1831128476945165e-01  3.1442647096153642e-03 2.6581310668652980e-01 4.4330435439129118e-01  2.7664439720979602e-03 2.6521300355245381e-01 4.7243141752819567e-01  2.2645947730993523e-03 2.9288299154871578e-01 4.6499787281155641e-01  3.6771537586952536e-03 3.5449204548191665e-01 5.1661495795884660e-01  3.5867885503596138e-03 2.3829158350497973e-01 4.9232438646536308e-01  3.1305635767404851e-03 2.6982884781266653e-01 4.0308409460433581e-01  2.9675395061159694e-03 2.8327261214878113e-01 4.9507276916840820e-01  2.6978747310229308e-03 2.1454491723008012e-01 5.2288441350685211e-01  3.4263036168506386e-03 2.3825582756957683e-01 4.3174669602718285e-01  2.5653653241232257e-03 2.7845713920487686e-01 5.5595104138712526e-01  3.3079351866941230e-03 2.8969252367352993e-01 5.0334426662177678e-01  2.9947656410143340e-03 2.7098038125099144e-01 5.2655418044469771e-01  2.2822909162028230e-03 2.1259828665282665e-01 4.2718601630982722e-01  2.3560857223227866e-03 2.2491335082396430e-01 5.0034056521255466e-01  2.7168939559084077e-03 2.4981397773724631e-01 4.3456327106191789e-01  3.7234190004452475e-03 1.7293748122882430e-01 4.6655235038788495e-01  2.9638750964119500e-03 1.8651577282360840e-01 5.3425851010447734e-01  2.8520808488336647e-03 2.6803095453964015e-01 5.3302561321588082e-01  2.7683322761806409e-03 2.1736702776087666e-01 4.6448869862566194e-01  3.1265797907617083e-03 2.9766236851898303e-01 4.1372542404661117e-01  1.8478750554406559e-03 2.3555504944536890e-01 5.0364927956896000e-01  3.2699409729570962e-03 2.2248216257674114e-01 4.6792149415951134e-01  3.4278615053950669e-03 2.5561648218745364e-01 4.0750977329035487e-01  1.1643673603147912e-02 2.6360557539349704e-02 2.1656109941151407e-02  1.1946480895320511e-02 1.4971166533085412e-02 6.4573114370008160e-03  1.1950493919657908e-02 1.4828440634137657e-02 6.2432492435117561e-03  1.1950493020642867e-02 1.4828456221197087e-02 6.2432968760500543e-03  1.1950495049208974e-02 1.4828404676946412e-02 6.2431906772004251e-03  1.1950495049500968e-02 1.4828404669363904e-02 6.2431906616896926e-03  1.1950495049504933e-02 1.4828404669260732e-02 6.2431906614786887e-03  1.1950495049504939e-02 1.4828404669260683e-02 6.2431906614785933e-03  1.1950495049504939e-02 1.4828404669260687e-02 6.2431906614785933e-03  1.1950495049504939e-02 1.4828404669260687e-02 6.2431906614785933e-03  1.1950495049504940e-02 1.4828404669260683e-02 6.2431906614785950e-03  1.1950495049504937e-02 1.4828404669260680e-02 6.2431906614785907e-03  1.1950495049504928e-02 1.4828404669260688e-02 6.2431906614785933e-03  1.1950495049504939e-02 1.4828404669260688e-02 6.2431906614785915e-03  1.1950495049504942e-02 1.4828404669260688e-02 6.2431906614785933e-03  1.1950495049504942e-02 1.4828404669260694e-02 6.2431906614785959e-03  1.1950495049504937e-02 1.4828404669260688e-02 6.2431906614785941e-03  1.1950495049504939e-02 1.4828404669260688e-02 6.2431906614785933e-03  1.1950495049504942e-02 1.4828404669260688e-02 6.2431906614785941e-03  1.1950495049504935e-02 1.4828404669260683e-02 6.2431906614785924e-03  1.1950495049504933e-02 1.4828404669260680e-02 6.2431906614785924e-03  1.1950495049504928e-02 1.4828404669260669e-02 6.2431906614785881e-03  1.1950495049504932e-02 1.4828404669260685e-02 6.2431906614785881e-03  1.1950495049504940e-02 1.4828404669260695e-02 6.2431906614785950e-03  1.1950495049504937e-02 1.4828404669260685e-02 6.2431906614785915e-03  1.1950495049504935e-02 1.4828404669260685e-02 6.2431906614785933e-03  1.1950495049504937e-02 1.4828404669260687e-02 6.2431906614785933e-03  1.1950495049504944e-02 1.4828404669260694e-02 6.2431906614785950e-03  1.1950495049504944e-02 1.4828404669260692e-02 6.2431906614785941e-03  1.1950495049504942e-02 1.4828404669260692e-02 6.2431906614785933e-03  1.1950495049504942e-02 1.4828404669260687e-02 6.2431906614785941e-03  1.1950495049504944e-02 1.4828404669260694e-02 6.2431906614785950e-03  1.1950495049504942e-02 1.4828404669260690e-02 6.2431906614785950e-03  1.1950495049504944e-02 1.4828404669260692e-02 6.2431906614785959e-03  1.1950495049504944e-02 1.4828404669260690e-02 6.2431906614785950e-03  1.1950495049504940e-02 1.4828404669260687e-02 6.2431906614785933e-03  1.1950495049504940e-02 1.4828404669260688e-02 6.2431906614785933e-03  1.1950495049504945e-02 1.4828404669260694e-02 6.2431906614785959e-03  1.1950495049504945e-02 1.4828404669260692e-02 6.2431906614785950e-03  1.1950495049504940e-02 1.4828404669260690e-02 6.2431906614785933e-03  1.1950495049504930e-02 1.4828404669260681e-02 6.2431906614785924e-03  1.1950495049504935e-02 1.4828404669260685e-02 6.2431906614785924e-03  1.1950495049504942e-02 1.4828404669260687e-02 6.2431906614785941e-03  1.1950495049504942e-02 1.4828404669260692e-02 6.2431906614785941e-03  1.1950495049504944e-02 1.4828404669260688e-02 6.2431906614785950e-03  1.1950495049504939e-02 1.4828404669260685e-02 6.2431906614785924e-03  1.1950495049504942e-02 1.4828404669260687e-02 6.2431906614785924e-03  1.1950495049504940e-02 1.4828404669260687e-02 6.2431906614785941e-03  1.1950495049504942e-02 1.4828404669260688e-02 6.2431906614785915e-03  1.1950495049504944e-02 1.4828404669260692e-02 6.2431906614785941e-03  1.1950495049504949e-02 1.4828404669260694e-02 6.2431906614785967e-03  1.1950495049504942e-02 1.4828404669260688e-02 6.2431906614785941e-03  1.1950495049504944e-02 1.4828404669260690e-02 6.2431906614785959e-03  1.1950495049504942e-02 1.4828404669260690e-02 6.2431906614785933e-03  1.1950495049504937e-02 1.4828404669260685e-02 6.2431906614785915e-03  1.1950495049504940e-02 1.4828404669260692e-02 6.2431906614785950e-03  1.1950495049504945e-02 1.4828404669260694e-02 6.2431906614785959e-03  1.1950495049504942e-02 1.4828404669260695e-02 6.2431906614785967e-03  1.1950495049504940e-02 1.4828404669260692e-02 6.2431906614785959e-03  1.1950495049504940e-02 1.4828404669260688e-02 6.2431906614785941e-03  1.1950495049504939e-02 1.4828404669260683e-02 6.2431906614785924e-03  1.1950495049504935e-02 1.4828404669260685e-02 6.2431906614785941e-03  1.1950495049504942e-02 1.4828404669260685e-02 6.2431906614785941e-03  1.1950495049504940e-02 1.4828404669260687e-02 6.2431906614785924e-03  1.1950495049504944e-02 1.4828404669260690e-02 6.2431906614785933e-03  1.1950495049504942e-02 1.4828404669260690e-02 6.2431906614785872e-03  1.1950495049504939e-02 1.4828404669260688e-02 6.2431906614785933e-03  1.1950495049504939e-02 1.4828404669260685e-02 6.2431906614785941e-03  1.1950495049504933e-02 1.4828404669260681e-02 6.2431906614785924e-03  1.1950495049504940e-02 1.4828404669260687e-02 6.2431906614785950e-03  1.1950495049504942e-02 1.4828404669260683e-02 6.2431906614785950e-03  1.1950495049504939e-02 1.4828404669260681e-02 6.2431906614785924e-03  1.1950495049504935e-02 1.4828404669260680e-02 6.2431906614785898e-03  1.1950495049504939e-02 1.4828404669260687e-02 6.2431906614785915e-03  1.1950495049504940e-02 1.4828404669260685e-02 6.2431906614785950e-03  1.1950495049504945e-02 1.4828404669260688e-02 6.2431906614785950e-03  1.1950495049504942e-02 1.4828404669260690e-02 6.2431906614785967e-03  1.1950495049504942e-02 1.4828404669260690e-02 6.2431906614785967e-03  1.1950495049504940e-02 1.4828404669260683e-02 6.2431906614785933e-03  1.1950495049504939e-02 1.4828404669260690e-02 6.2431906614785941e-03  1.1950495049504939e-02 1.4828404669260687e-02 6.2431906614785941e-03  1.1950495049504942e-02 1.4828404669260690e-02 6.2431906614785941e-03  1.1950495049504939e-02 1.4828404669260688e-02 6.2431906614785924e-03  1.1950495049504939e-02 1.4828404669260690e-02 6.2431906614785941e-03  1.1950495049504939e-02 1.4828404669260685e-02 6.2431906614785941e-03  1.1950495049504939e-02 1.4828404669260687e-02 6.2431906614785933e-03  1.1950495049504940e-02 1.4828404669260690e-02 6.2431906614785941e-03  1.1950495049504944e-02 1.4828404669260690e-02 6.2431906614785941e-03  1.1950495049504944e-02 1.4828404669260690e-02 6.2431906614785967e-03  1.1950495049504939e-02 1.4828404669260690e-02 6.2431906614785924e-03  1.1950495049504930e-02 1.4828404669260690e-02 6.2431906614785898e-03  1.1950495049504940e-02 1.4828404669260692e-02 6.2431906614785933e-03  1.1950495049504940e-02 1.4828404669260688e-02 6.2431906614785941e-03  1.1950495049504937e-02 1.4828404669260692e-02 6.2431906614785967e-03  1.1950495049504940e-02 1.4828404669260688e-02 6.2431906614785950e-03  1.1950495049504942e-02 1.4828404669260690e-02 6.2431906614785941e-03  1.1950495049504942e-02 1.4828404669260685e-02 6.2431906614785959e-03  1.1950495049504939e-02 1.4828404669260688e-02 6.2431906614785941e-03  1.1950495049504937e-02 1.4828404669260687e-02 6.2431906614785941e-03  1.1950495049504940e-02 1.4828404669260687e-02 6.2431906614785933e-03  1.1950495049504944e-02 1.4828404669260688e-02 6.2431906614785941e-03  1.1950495049504942e-02 1.4828404669260690e-02 6.2431906614785967e-03  1.1950495049504939e-02 1.4828404669260692e-02 6.2431906614785994e-03  1.1950495049504942e-02 1.4828404669260704e-02 6.2431906614786193e-03  1.1950495049504935e-02 1.4828404669260890e-02 6.2431906614788726e-03  1.1950495049504928e-02 1.4828404669261146e-02 6.2431906614792317e-03  1.1950495049504911e-02 1.4828404669261688e-02 6.2431906614799897e-03  1.1950495049504887e-02 1.4828404669262782e-02 6.2431906614815093e-03  1.1950495049504664e-02 1.4828404669271511e-02 6.2431906614936793e-03  1.1950495049503901e-02 1.4828404669301846e-02 6.2431906615359415e-03  1.1950495049500985e-02 1.4828404669417367e-02 6.2431906616969542e-03  1.1950495049489489e-02 1.4828404669873766e-02 6.2431906623332039e-03  1.1950495049445529e-02 1.4828404671621151e-02 6.2431906647695476e-03  1.1950495049279674e-02 1.4828404678222310e-02 6.2431906739755490e-03  1.1950495048665292e-02 1.4828404702698536e-02 6.2431907081156287e-03  1.1950495046471946e-02 1.4828404790179519e-02 6.2431908301608819e-03  1.1950495038984715e-02 1.4828405089209485e-02 6.2431912474387998e-03  1.1950494905499345e-02 1.4828410431236647e-02 6.2431987046352522e-03  1.1950494356282856e-02 1.4828432443803968e-02 6.2432294415248691e-03  1.1950491841915909e-02 1.4828533341199771e-02 6.2433703593415442e-03  1.1950479386309538e-02 1.4829034448429260e-02 6.2440705577100197e-03  1.1950419949857667e-02 1.4831432224886620e-02 6.2474226358314516e-03  1.1950136285994478e-02 1.4842916163280085e-02 6.2634867554574002e-03  1.1948748749734731e-02 1.4899338997353948e-02 6.3424663454251570e-03  1.1941854468276149e-02 1.5181294580838155e-02 6.7374145359934568e-03  1.1908292798721134e-02 1.6561969914419970e-02 8.6722061491461399e-03  1.1716276797301348e-02 2.4672936267278421e-02 2.0020144587659456e-02  1.0699137948577190e-02 6.8610442866844271e-02 8.1340327190406611e-02  7.1887411878333776e-03 2.0185769354149305e-01 2.9017235234855260e-01  4.5932103252250668e-03 2.8743080911468316e-01 3.2894964610751998e-01  4.0231128542740392e-03 2.7465274554755076e-01 3.6974336473858677e-01  3.1655010744842441e-03 2.0362930334584275e-01 4.8635651627612669e-01  3.6188319351834080e-03 2.0195021727514958e-01 5.7550697044454657e-01  3.9462000339395833e-03 2.4923182415885134e-01 5.9539997499074926e-01  3.0321347786407427e-03 2.2955904331035745e-01 5.6668423081786845e-01  2.8850016779773252e-03 2.6484362533947547e-01 5.4194405074708263e-01  2.4369044787046945e-03 2.5907143436637992e-01 4.6270548335716355e-01  1.9964844291457721e-03 1.7812885898290004e-01 4.2382439612558243e-01  2.4066479720729794e-03 2.0315114353808000e-01 4.4251974804183436e-01  2.1344703629223678e-03 2.4368455909851205e-01 4.5444888341116163e-01  2.6937840822588797e-03 2.3308342717764416e-01 4.2068314384670508e-01  3.7634326758280360e-03 2.6535257842618759e-01 5.2597553074580028e-01  4.0899818932806668e-03 3.0249244889351784e-01 5.1916612353578551e-01  3.5990253101570112e-03 3.1737412720961783e-01 4.9815426321185091e-01  2.5996244020281951e-03 2.4960654787807271e-01 4.2826866928881835e-01  1.8736767412852998e-03 2.1838792426345852e-01 4.5537874161482528e-01  2.0795979591169494e-03 2.4177550999465300e-01 5.1080822436575857e-01  3.1960391495945554e-03 2.8479389214070744e-01 5.2617434627928483e-01  3.0147178359195182e-03 3.2857161870355756e-01 4.6160655776630910e-01  3.1969717568705504e-03 3.4010153727985337e-01 4.7650315499303247e-01  2.7786093836691768e-03 2.1751191584674112e-01 4.4332693535637047e-01  3.3813465729206861e-03 2.8153490242693602e-01 4.4476860154812564e-01  3.4751707893741724e-03 2.8923605804436892e-01 4.2185400818307867e-01  2.9797260031765075e-03 2.2034936484378098e-01 3.9427329038558601e-01  3.1817982802379982e-03 2.3330937518449313e-01 4.9926807073667878e-01  3.2309249129667482e-03 2.6125209861626242e-01 5.3290328232007833e-01  3.3063432677852295e-03 2.7793590581881239e-01 5.1779823764688915e-01  3.6267340110284953e-03 2.9596508038793701e-01 4.9622256467159193e-01  3.2536419047196861e-03 3.1099137592256082e-01 4.7060965322242126e-01  3.0696669933532425e-03 3.3528061563523542e-01 4.7836087611747152e-01  2.9149545792098871e-03 3.0964330403238177e-01 5.2436688405438980e-01  3.5407950235243966e-03 2.4296460195129996e-01 4.6834894660823578e-01  4.2596022469667668e-03 2.3656565331602428e-01 4.3578338074133144e-01  4.1961087115339087e-03 1.9189657446564820e-01 4.2679915538243951e-01  3.5725206304118707e-03 2.0900036533109417e-01 4.2141419493972915e-01  3.2666981935932575e-03 2.3066742233544033e-01 5.2053971771516105e-01  3.4928719673544377e-03 2.3060815870802207e-01 5.0863146562669204e-01  3.5024689342725117e-03 3.0853917522325003e-01 4.6770942043316416e-01  3.1060194768784319e-03 2.8900538327048053e-01 4.7503591598543671e-01  3.4233408303389512e-03 2.3680737397291066e-01 4.7253791219349278e-01  2.9113506907413192e-03 2.3347933481266608e-01 4.5940221853602264e-01  3.0000964214964292e-03 2.4110696082186578e-01 3.8859942450787793e-01  3.0411099388076607e-03 3.2902126461069398e-01 4.6566669833913293e-01  3.2759167521344110e-03 2.9988844219390381e-01 5.7267167865796043e-01  3.5720953084048966e-03 3.1080356490620037e-01 5.8589777377662067e-01  2.8073073742140467e-03 2.9285782198043891e-01 5.6426888251353979e-01  3.5803245417775405e-03 2.2693421680429604e-01 5.1793204188767039e-01  3.9565694220294028e-03 2.3785788851014264e-01 5.0701484305077260e-01  4.1300616086918191e-03 2.3680143628476691e-01 4.9818912844304791e-01  4.1697670261272458e-03 2.4750492470979060e-01 4.9009927005724069e-01  3.5210354509898293e-03 2.2336633366016201e-01 5.1454203451396641e-01  3.6865986692881012e-03 2.2680886711646084e-01 5.1494940831408809e-01  4.2332301562018901e-03 2.5018325861002783e-01 4.8172386772666403e-01  3.3687400105291880e-03 2.0016416159613321e-01 5.0028557342157809e-01  2.7400669599314787e-03 2.2756634919081051e-01 4.6222071433003858e-01  3.5857732710894677e-03 2.3577046498990192e-01 4.7414510067391957e-01  3.3538330432269633e-03 2.9580614118369636e-01 4.2742488140634094e-01  2.5800494833943931e-03 2.7884978864911397e-01 4.3671014068820152e-01  2.3870100528902436e-03 2.4288817420808756e-01 4.6493701614514932e-01  2.4004636132442907e-03 2.3058345611033612e-01 5.5665841923358217e-01  3.1809170572753898e-03 1.8502046236524430e-01 4.9433970212479650e-01  3.5616179838194959e-03 1.7292529142855231e-01 4.3143300197185425e-01  3.4441602605416290e-03 2.7362018441598479e-01 3.9399498927659887e-01  2.8181396614373028e-03 2.8942353493235623e-01 4.6983188278788657e-01  3.3909332529062529e-03 2.3948847433324458e-01 4.7951217404943658e-01  2.6431309257581919e-03 2.5777863268205142e-01 5.3368685357285950e-01  2.3478909974210247e-03 3.4172447589547778e-01 4.9428993297669366e-01  2.4721278023403328e-03 3.2249522242743794e-01 4.7467760359604350e-01  2.4304665295827592e-03 2.8608719855650344e-01 4.6257363557383097e-01  3.4912744263730887e-03 2.9964332234654245e-01 4.9519743445432868e-01  3.8153708716319678e-03 2.1593848097520482e-01 4.7961057517397121e-01  3.7099205830393501e-03 1.6884941712824802e-01 4.6660375384117542e-01  3.0518957275129455e-03 1.9979030667629424e-01 4.6875099550851312e-01  2.7711361094549126e-03 3.1158531648226218e-01 5.5420254039876360e-01  3.1074203492606465e-03 2.4793712356011685e-01 5.2999704253015167e-01  3.3562638054644590e-03 2.5652197828955609e-01 4.3928984319397296e-01  2.8722649125130627e-03 2.7561926583157981e-01 4.3512993805802741e-01  2.8305875924412279e-03 2.8921611760710408e-01 4.0600427582259013e-01  3.0060648912172178e-03 2.7705487957418462e-01 4.4023908661310907e-01  3.9741086333071598e-03 2.8865575032367308e-01 5.3147102676934843e-01  3.3863301359373073e-03 3.0586921546116691e-01 4.7269996771341144e-01  3.4359850520707487e-03 3.1520603045580881e-01 4.7787402383424987e-01  3.5545764368040008e-03 2.9891825029259389e-01 4.8655329443313416e-01  3.3279703425641632e-03 3.0765266175404460e-01 5.3063539479504129e-01  2.8234456631691367e-03 2.7571501012701854e-01 5.2916015736442845e-01  2.3032153725363351e-03 2.3585809685286818e-01 5.3806841257017601e-01  2.1049546403352870e-03 2.5769820093521112e-01 4.8862197093602566e-01  2.9007152387715137e-03 3.1560913523089246e-01 4.7717914865635896e-01  2.8498714739501360e-03 2.7571393004217620e-01 4.2236310123212478e-01  2.5928010628333605e-03 2.5812683741102976e-01 4.7619991818014901e-01  2.5552223128979495e-03 3.2705667481194906e-01 5.5166514542272527e-01  2.4666342087505877e-03 2.7566038334632798e-01 4.7399849511923636e-01  2.5359698295651404e-03 2.3254592318509149e-01 4.2398642646197460e-01  3.3523338316010236e-03 2.1402531915498083e-01 4.7887938136571723e-01  2.9409622897667641e-03 2.1860233290886116e-01 4.9130404955844581e-01  3.3619921653883478e-03 2.6139226579026559e-01 5.3609747725433188e-01  2.5986870992562900e-03 2.6427655700218461e-01 5.0459833036692159e-01  2.8821269149799798e-03 2.6856078979296405e-01 4.6636323146496611e-01  2.9536536719480286e-03 3.1237262139221500e-01 4.4308337063801001e-01  3.7102961678398385e-03 2.6493947153629477e-01 4.0432446707959518e-01  3.5590189870669505e-03 3.2209288613825948e-01 4.2212540072633409e-01  2.8980620462