<?xml version="1.0"?>
<VTKFile type="UnstructuredGrid"  version="0.1"  >
<UnstructuredGrid>
<Piece  NumberOfPoints="7288" NumberOfCells="14083">
<Points>
<DataArray  type="Float64"  NumberOfComponents="3"  format="ascii">239.8 188 0  250.2 180 0  258.2 172.4 0  257 169.4 0  259.9 157.4 0  258.7 150.3 0  261 143.5 0  251.7 144.4 0  250 138.7 0  247 138.1 0  245.2 130.8 0  247.3 126.4 0  242.7 118.6 0  231.2 107.7 0  226 102.4 0  226.5 93.90000000000001 0  224.5 91.19999999999999 0  224.5 84.09999999999999 0  234.5 73.80000000000001 0  228.4 68.90000000000001 0  230 70 0  233.4 68 0  222.7 61.5 0  220.6 45.5 0  223.4 49.40000000000001 0  224 47 0  221.8 43.09999999999999 0  221 38.40000000000001 0  219.5 38.5 0  219.4 41.69999999999999 0  217.1 36.90000000000001 0  209.7 36 0  209.5 31.69999999999999 0  205.1 29.90000000000001 0  201.5 30.40000000000001 0  199.2 38.69999999999999 0  201.8 41.40000000000001 0  194.8 53.80000000000001 0  196.1 57.69999999999999 0  193 59 0  191.4 66.09999999999999 0  193.5 66.5 0  194.1 64.40000000000001 0  195.6 64.69999999999999 0  195.4 72.40000000000001 0  199.5 77.30000000000001 0  197.7 86.90000000000001 0  200.6 87.5 0  201.5 91 0  198 94.80000000000001 0  198.6 100 0  197.3 105.4 0  198 109.5 0  197 112.7 0  198.3 116.1 0  201.3 122 0  207.2 121 0  208.1 126.7 0  205.6 127.9 0  209.1 134.9 0  210.9 144.4 0  210.1 147.9 0  213 148.4 0  215.4 149.3 0  215.1 152.8 0  219.9 159.7 0  220.3 163.2 0  218.7 164.9 0  219.9 166.7 0  221.9 169.7 0  220 170.3 0  224.9 174.7 0  229.8 177.4 0  229.7 181 0  228 172.9 0  239 178 0  240.4 180 0  239 181.5 0  241.2 185.9 0  242.95 187.99 0  240.5875 187.9975 0  241.375 187.995 0  242.1625 187.9925 0  243.6090909090879 187.2636363636397 0  244.2681818181765 186.5372727272785 0  244.9272727272692 185.810909090913 0  245.5863636363531 185.0845454545571 0  246.245454545445 184.3581818181923 0  246.9045454545351 183.6318181818295 0  247.5636363636303 182.9054545454612 0  248.2227272727197 182.1790909090992 0  248.8818181818179 181.4527272727275 0  249.5409090909066 180.7263636363664 0  250.8666666666961 179.3666666666387 0  251.5333333334033 178.7333333332668 0  252.2000000000994 178.0999999999055 0  252.8666666668011 177.466666666539 0  253.5333333335083 176.8333333331671 0  254.2000000002044 176.1999999998058 0  254.8666666669005 175.5666666664445 0  255.5333333336077 174.9333333330727 0  256.2000000002685 174.2999999997449 0  256.8666666668457 173.6666666664966 0  257.5333333334283 173.033333333243 0  257.9000000000077 171.6500000000191 0  257.6000000000015 170.9000000000038 0  257.2999999999954 170.1499999999885 0  257.2230769230778 168.4769230769195 0  257.4461538461543 167.5538461538442 0  257.6692307692309 166.6307692307688 0  257.8923076923074 165.7076923076935 0  258.115384615384 164.7846153846181 0  258.3384615384605 163.8615384615427 0  258.5615384615395 162.9384615384572 0  258.784615384616 162.0153846153819 0  259.0076923076926 161.0923076923065 0  259.2307692307691 160.1692307692311 0  259.4538461538457 159.2461538461558 0  259.6769230769222 158.3230769230804 0  259.750000000001 156.512500000006 0  259.6000000000014 155.6250000000082 0  259.4500000000029 154.7375000000176 0  259.3000000000018 153.8500000000108 0  259.1500000000007 152.962500000004 0  259.0000000000004 152.0750000000026 0  258.849999999999 151.187499999994 0  258.9875000000052 149.4499999999846 0  259.275000000002 148.5999999999941 0  259.5624999999954 147.7500000000135 0  259.849999999995 146.900000000015 0  260.1374999999945 146.0500000000164 0  260.4249999999913 145.2000000000259 0  260.7124999999948 144.3500000000154 0  260.0700000000398 143.5899999999961 0  259.1400000000573 143.6799999999944 0  258.2100000000351 143.7699999999966 0  257.2800000000262 143.8599999999975 0  256.350000000011 143.9499999999989 0  255.4199999999881 144.0400000000011 0  254.4899999999726 144.1300000000026 0  253.5599999999944 144.2200000000005 0  252.6300000000009 144.3099999999999 0  251.4166666666658 143.4499999999971 0  251.1333333333388 142.5000000000182 0  250.8500000000015 141.5500000000051 0  250.5666666666612 140.5999999999818 0  250.2833333333342 139.6500000000029 0  249.2500000000005 138.5500000000001 0  248.5000000000011 138.4000000000002 0  247.7499999999995 138.2499999999999 0  246.7750000000005 137.1875000000023 0  246.5500000000021 136.2750000000085 0  246.3250000000036 135.3625000000147 0  246.1000000000042 134.450000000017 0  245.8750000000022 133.5375000000088 0  245.650000000003 132.6250000000124 0  245.4250000000046 131.7125000000187 0  245.619999999996 129.9200000000084 0  246.0399999999992 129.0400000000017 0  246.4599999999987 128.1600000000028 0  246.8800000000001 127.2799999999997 0  246.8399999999988 125.6199999999979 0  246.3799999999984 124.8399999999973 0  245.9199999999991 124.0599999999985 0  245.4600000000036 123.2800000000062 0  245.0000000000049 122.5000000000082 0  244.5400000000036 121.7200000000062 0  244.0800000000033 120.9400000000056 0  243.6200000000016 120.1600000000027 0  243.1600000000012 119.3800000000021 0  241.9812499999996 117.9187499999997 0  241.2625000000007 117.2375000000007 0  240.5437500000017 116.5562500000017 0  239.8250000000041 115.875000000004 0  239.1062500000066 115.1937500000063 0  238.3875000000076 114.5125000000072 0  237.6687500000087 113.8312500000082 0  236.9500000000083 113.1500000000079 0  236.231250000008 112.4687500000076 0  235.512500000009 111.7875000000085 0  234.7937500000045 111.1062500000043 0  234.0750000000042 110.4250000000039 0  233.3562500000066 109.7437500000062 0  232.6375000000021 109.062500000002 0  231.9187500000031 108.381250000003 0  230.5500000000004 107.0375000000004 0  229.9000000000021 106.3750000000021 0  229.2500000000038 105.7125000000039 0  228.6000000000041 105.0500000000042 0  227.9500000000018 104.3875000000018 0  227.2999999999952 103.7249999999951 0  226.6500000000024 103.0625000000024 0  226.0555555555555 101.4555555555556 0  226.1111111111111 100.5111111111111 0  226.1666666666667 99.56666666666668 0  226.2222222222222 98.62222222222223 0  226.2777777777778 97.67777777777778 0  226.3333333333333 96.73333333333335 0  226.3888888888889 95.78888888888889 0  226.4444444444445 94.84444444444446 0  226 93.22499999999999 0  225.5000000000026 92.55000000000358 0  225.0000000000026 91.87500000000358 0  224.5 90.31250000000068 0  224.5 89.4250000000097 0  224.5 88.53750000001317 0  224.5 87.65000000001388 0  224.5 86.76250000001457 0  224.5 85.87500000001248 0  224.5 84.9874999999993 0  225.1666666666659 83.41333333333409 0  225.8333333333319 82.72666666666818 0  226.4999999999978 82.04000000000228 0  227.1666666666649 81.35333333333514 0  227.8333333333301 80.66666666667 0  228.4999999999942 79.980000000006 0  229.1666666666601 79.2933333333401 0  229.8333333333316 78.60666666666847 0  230.4999999999975 77.92000000000257 0  231.1666666666644 77.23333333333572 0  231.8333333333295 76.54666666667057 0  232.4999999999972 75.86000000000287 0  233.1666666666681 75.17333333333181 0  233.8333333333368 74.48666666666306 0  233.7499999999995 73.16666666666629 0  233.0000000000018 72.53333333333488 0  232.2500000000014 71.90000000000116 0  231.5000000000009 71.26666666666743 0  230.7500000000005 70.63333333333372 0  229.233333333333 68.75000000000006 0  230.0666666666665 68.60000000000004 0  230.8999999999995 68.45000000000009 0  231.7333333333325 68.30000000000015 0  232.566666666667 68.14999999999995 0  232.5499999999897 68.50000000000607 0  231.7 69 0  230.8500000000103 69.49999999999393 0  227.8300000000008 68.16000000000106 0  227.2600000000064 67.42000000000837 0  226.6900000000077 66.68000000001001 0  226.1200000000024 65.94000000000314 0  225.5500000000108 65.20000000001409 0  224.9800000000098 64.46000000001268 0  224.4100000000007 63.72000000000098 0  223.8399999999971 62.97999999999621 0  223.2699999999993 62.23999999999915 0  222.753846153846 60.56923076923239 0  222.8076923076921 59.63846153846478 0  222.8615384615381 58.70769230769827 0  222.9153846153842 57.77692307693071 0  222.9692307692302 56.84615384616315 0  223.0230769230761 55.91538461539836 0  223.0769230769224 54.98461538462665 0  223.1307692307688 54.05384615385345 0  223.184615384615 53.12307692308312 0  223.2384615384611 52.19230769231556 0  223.2923076923071 51.26153846154906 0  223.3461538461533 50.33076923077847 0  222.8400000000024 48.62000000000327 0  222.2800000000047 47.84000000000661 0  221.7200000000005 47.06000000000071 0  221.1600000000003 46.28000000000039 0  221.4500000000116 45.87500000000512 0  222.3 46.25 0  223.1499999999884 46.62499999999488 0  223.5600000000055 46.22000000000981 0  223.1199999999987 45.43999999999767 0  222.6800000000061 44.66000000001075 0  222.2399999999969 43.8799999999944 0  221.6400000000004 42.16000000000253 0  221.4800000000009 41.22000000000548 0  221.3200000000014 40.28000000000801 0  221.1600000000009 39.34000000000556 0  220.25 38.45 0  219.4749999999999 39.30000000000165 0  219.45 40.09999999999999 0  219.425 40.90000000000112 0  219.0166666666641 40.89999999999463 0  218.6333333333375 40.10000000000875 0  218.2500000000016 39.30000000000339 0  217.8666666666635 38.49999999999351 0  217.483333333337 37.70000000000762 0  216.1750000000165 36.78750000000201 0  215.2500000000275 36.67500000000335 0  214.3250000000385 36.56250000000469 0  213.4000000000277 36.45000000000337 0  212.4750000000059 36.33750000000072 0  211.5499999999838 36.22499999999803 0  210.6249999999835 36.11249999999799 0  209.6600000000001 35.14000000000318 0  209.6200000000001 34.28000000000268 0  209.5800000000001 33.42000000000284 0  209.5399999999998 32.55999999999681 0  208.6200000000117 31.34000000000476 0  207.7400000000138 30.98000000000564 0  206.8600000000162 30.62000000000662 0  205.9800000000174 30.26000000000711 0  204.2000000000054 30.02499999999925 0  203.2999999999946 30.15000000000076 0  202.3999999999945 30.27500000000076 0  201.2444444444438 31.32222222222468 0  200.9888888888895 32.24444444
[...]
<PointData  Vectors="f_12"> 
<DataArray  type="Float64"  Name="f_12"  NumberOfComponents="3" format="ascii">4.8712812648265780e-01 2.7430125186614557e-01 3.7268784946399180e-01  4.8762728754194645e-01 2.8023455500592426e-01 3.7189124244715593e-01  4.8827410427385148e-01 2.8747201290858726e-01 3.7109148459328217e-01  4.8861377026406705e-01 2.9096236223979866e-01 3.7084189059798212e-01  4.9118759821702523e-01 3.1532600923981186e-01 3.6992138696649673e-01  4.9318871249892615e-01 3.3186468976090749e-01 3.7035250603897502e-01  4.9381406256566757e-01 3.3706061206153570e-01 3.7042035867640782e-01  4.9761645909750279e-01 3.6202859384646807e-01 3.7440183605868332e-01  5.0344451952117941e-01 3.9724313177181769e-01 3.8099317590384263e-01  5.0676291411866359e-01 4.1436625739343652e-01 3.8575542857018558e-01  5.1920715878736412e-01 4.6919397744203034e-01 4.0518470747659852e-01  5.2338873908241301e-01 4.8427908175791828e-01 4.1231693619539883e-01  5.2936769816801910e-01 5.0094385919817330e-01 4.2441818169899170e-01  5.4392748652999079e-01 5.2474492461968336e-01 4.5959743445924428e-01  5.5179609402790131e-01 5.2857633416006389e-01 4.8196226424481586e-01  5.5746021399780066e-01 5.2754331066807381e-01 4.9969345497013007e-01  5.5881999329123910e-01 5.2650106350905268e-01 5.0440233090475473e-01  5.6181987892337004e-01 5.2320337064343414e-01 5.1538265413694728e-01  5.6348533449333438e-01 5.2070666635619001e-01 5.2188460186135321e-01  5.6361922150067889e-01 5.2044480723432907e-01 5.2245174480556478e-01  5.6357953668017657e-01 5.2052558456528830e-01 5.2228119886225965e-01  5.6361525492621356e-01 5.2046468754888131e-01 5.2242537691310120e-01  5.6410713929342537e-01 5.1943968025247822e-01 5.2455411909356187e-01  5.6455277475611254e-01 5.1844150659137123e-01 5.2653124265135642e-01  5.6448933557346237e-01 5.1859408236922178e-01 5.2624192413181381e-01  5.6456638866389341e-01 5.1840893725497983e-01 5.2659317989213994e-01  5.6456950554856933e-01 5.1840079668323735e-01 5.2660789689096499e-01  5.6458114711934182e-01 5.1837238253553841e-01 5.2666129478593593e-01  5.6458112354657175e-01 5.1837243506384989e-01 5.2666119061325045e-01  5.6457650584088692e-01 5.1838300085015232e-01 5.2664056598443065e-01  5.6459371879417075e-01 5.1833788669270042e-01 5.2672195614098616e-01  5.6460906558047008e-01 5.1829443195264469e-01 5.2679705350019701e-01  5.6462005925316427e-01 5.1826394187814928e-01 5.2685033813147719e-01  5.6462240820868836e-01 5.1825724808026130e-01 5.2686186342939167e-01  5.6462244226418612e-01 5.1825703982676297e-01 5.2686211828939244e-01  5.6460995266388481e-01 5.1829051692324812e-01 5.2680250213898439e-01  5.6458943520675053e-01 5.1834400334942266e-01 5.2670573597489989e-01  5.6443415354974824e-01 5.1872152051402309e-01 5.2599439182134544e-01  5.6434651166850225e-01 5.1892022029321427e-01 5.2560383431695301e-01  5.6429467371039777e-01 5.1903709887632321e-01 5.2537325817478586e-01  5.6404068698956289e-01 5.1957871476851492e-01 5.2426667190794773e-01  5.6404290156772174e-01 5.1957255261524404e-01 5.2427746100010664e-01  5.6420780075905375e-01 5.1922398339972309e-01 5.2499368884342845e-01  5.6415085986650426e-01 5.1934396178814302e-01 5.2474672653003307e-01  5.6383491264350005e-01 5.1998036765950506e-01 5.2339796372121383e-01  5.6310203974395479e-01 5.2131039904243615e-01 5.2037248194183627e-01  5.6178107423756629e-01 5.2343555271479281e-01 5.1509471336428714e-01  5.6137305390575210e-01 5.2396332508493648e-01 5.1355329122748883e-01  5.5983263078151302e-01 5.2583403060808609e-01 5.0778802791264199e-01  5.5838933616786146e-01 5.2737953136990301e-01 5.0248891011590324e-01  5.5700573694211442e-01 5.2843021058284079e-01 4.9768041834778076e-01  5.5520905744315985e-01 5.2942943979754409e-01 4.9163626538174710e-01  5.5378041871519912e-01 5.2986071953383951e-01 4.8703614110269161e-01  5.5280150577625820e-01 5.3002917470697208e-01 4.8394788044669479e-01  5.5185952608463829e-01 5.2998395899338269e-01 4.8110257359360054e-01  5.5013558912464977e-01 5.2950552932138473e-01 4.7612472529234645e-01  5.4599293846518404e-01 5.2622551721867872e-01 4.6527508429629821e-01  5.3661425328510037e-01 5.1490819087222728e-01 4.4141435825316938e-01  5.3497570652712745e-01 5.1240540296107673e-01 4.3732188686795720e-01  5.2865648547362998e-01 4.9820083581384456e-01 4.2355711451462863e-01  5.1759925149459551e-01 4.6414475208960998e-01 4.0177309340571893e-01  5.1600933318640396e-01 4.5830136605377647e-01 3.9884380236599204e-01  5.1495389481545584e-01 4.5374617749257712e-01 3.9725743591390833e-01  5.1148325808203654e-01 4.3825121487725249e-01 3.9199013136860378e-01  5.0722256760822115e-01 4.1807479679820952e-01 3.8558458898221876e-01  4.9906542251196634e-01 3.7149179922169678e-01 3.7577081146584790e-01  4.9545124611805164e-01 3.4781982269019507e-01 3.7223063464118311e-01  4.9450197449500127e-01 3.4132300389261089e-01 3.7136107983356442e-01  4.9396051115884909e-01 3.3739505847691564e-01 3.7097340628675179e-01  4.9300192735398712e-01 3.3015684160212561e-01 3.7042467039943233e-01  4.9322608458317613e-01 3.3197632553429807e-01 3.7048140533234414e-01  4.9169220948380882e-01 3.1959253598409226e-01 3.6999795110955735e-01  4.8943650630917612e-01 2.9923038233634797e-01 3.7031362685274771e-01  4.8918629244634665e-01 2.9692202013850832e-01 3.7035666250222238e-01  4.9104794329599000e-01 3.1378933541053478e-01 3.7011463905531922e-01  4.8839046849488477e-01 2.8838263632674110e-01 3.7117782772457097e-01  4.8767753796870994e-01 2.8059334915223838e-01 3.7195135578438049e-01  4.8744045616955040e-01 2.7793656314126025e-01 3.7223838294553052e-01  4.8718037268301201e-01 2.7492297186778536e-01 3.7260515836298147e-01  4.8714817287817974e-01 2.7454298444468095e-01 3.7265428608635925e-01  4.8713072653602013e-01 2.7433245193476419e-01 3.7268358800396167e-01  4.8713630461304147e-01 2.7439958849178187e-01 3.7267432594575012e-01  4.8714262044475831e-01 2.7447588052586736e-01 3.7266367366860387e-01  4.8716235796545737e-01 2.7471359980453303e-01 3.7263076773858089e-01  4.8718778289774589e-01 2.7501910086039688e-01 3.7258874898860539e-01  4.8722068246053035e-01 2.7541407627368192e-01 3.7253448912077841e-01  4.8725932672826927e-01 2.7587743034631046e-01 3.7247096936586488e-01  4.8730278640327274e-01 2.7639761026214077e-01 3.7239990116469274e-01  4.8734975301256012e-01 2.7695874633119594e-01 3.7232348874440169e-01  4.8740035509211216e-01 2.7756134236599972e-01 3.7224208475086207e-01  4.8745357135309253e-01 2.7819290276875736e-01 3.7215749002613874e-01  4.8750858693421778e-01 2.7884329796594381e-01 3.7207123305688977e-01  4.8756639400063556e-01 2.7952284374256420e-01 3.7198255920160350e-01  4.8768478069227528e-01 2.8090304416372597e-01 3.7180676639034443e-01  4.8774123679600462e-01 2.8155551044105143e-01 3.7172585523037321e-01  4.8779867709492575e-01 2.8221440535641479e-01 3.7164615202752721e-01  4.8785717631637571e-01 2.8288038236358798e-01 3.7156766659980794e-01  4.8791638921436231e-01 2.8354934498999756e-01 3.7149094517096642e-01  4.8797588403278291e-01 2.8421640895343947e-01 3.7141655250375227e-01  4.8803587415684579e-01 2.8488337431316124e-01 3.7134457353023026e-01  4.8809531348505680e-01 2.8553865699900211e-01 3.7127625215802473e-01  4.8815256297200166e-01 2.8616441165055806e-01 3.7121337058037723e-01  4.8820544397329435e-01 2.8673732888257769e-01 3.7115808950605850e-01  4.8824940741936368e-01 2.8720933688271644e-01 3.7111453453794774e-01  4.8830255357051777e-01 2.8776751106834808e-01 3.7106906681188184e-01  4.8836589095403354e-01 2.8842208296559829e-01 3.7102087624508573e-01  4.8846297736807814e-01 2.8942031559058073e-01 3.7094939320849590e-01  4.8881305395281111e-01 2.9298656881258900e-01 3.7070545652689130e-01  4.8899669393354239e-01 2.9483382226770932e-01 3.7058774383666510e-01  4.8918184650836039e-01 2.9667576586840350e-01 3.7047861476185290e-01  4.8937189740764436e-01 2.9854433533882030e-01 3.7037710600065948e-01  4.8956749753146739e-01 3.0044415016729042e-01 3.7028379976196896e-01  4.8976840669237198e-01 3.0237142420178875e-01 3.7019952312995186e-01  4.8997385671618077e-01 3.0431764607004214e-01 3.7012512570205813e-01  4.9018286017971430e-01 3.0627288203395808e-01 3.7006122274912423e-01  4.9039371607338128e-01 3.0822044265206944e-01 3.7000870914756195e-01  4.9060566193741678e-01 3.1015249519288624e-01 3.6996827295501383e-01  4.9081442900497707e-01 3.1203147302720985e-01 3.6994007518041133e-01  4.9101519747888522e-01 3.1381485667959252e-01 3.6992454659031082e-01  4.9136252840707734e-01 3.1683306802904782e-01 3.6993187805435990e-01  4.9157729878933393e-01 3.1866090314120604e-01 3.6995573339223864e-01  4.9181558352742133e-01 3.2066577470372565e-01 3.6999281787044380e-01  4.9206991895158814e-01 3.2278117716860005e-01 3.7004337073899135e-01  4.9233569614355283e-01 3.2496795396376316e-01 3.7010627820102177e-01  4.9260890050014305e-01 3.2719421563343914e-01 3.7017944838201972e-01  4.9288961091189859e-01 3.2946217965961949e-01 3.7026159715601681e-01  4.9342536132292514e-01 3.3377980076592650e-01 3.7041231117556189e-01  4.9358911419671442e-01 3.3510831119767504e-01 3.7044958019877783e-01  4.9369597378592434e-01 3.3598970919969584e-01 3.7046412571496223e-01  4.9376502031084973e-01 3.3657166309152181e-01 3.7046555381345514e-01  4.9380204392032134e-01 3.3690031235572221e-01 3.7045609007395824e-01  4.9381624680645941e-01 3.3704478029030266e-01 3.7044124135626877e-01  4.9381664147654469e-01 3.3707180999430558e-01 3.7042681626229412e-01  4.9382443470572568e-01 3.3712763641719717e-01 3.7043294673497651e-01  4.9386696564397004e-01 3.3740964095934939e-01 3.7048016043027904e-01  4.9395453871062234e-01 3.3799782308849996e-01 3.7057256906858599e-01  4.9409682111284620e-01 3.3895660182835757e-01 3.7072008677104140e-01  4.9430822389599172e-01 3.4038099280155293e-01 3.7093754563925663e-01  4.9460305117072778e-01 3.4236064284618267e-01 3.7124113275050563e-01  4.9500052542782935e-01 3.4501138529954783e-01 3.7165370486022176e-01  4.9553487254867296e-01 3.4854273990056356e-01 3.7221291640016313e-01  4.9629161589797155e-01 3.5348801125307361e-01 3.7300821344525770e-01  4.9921590188333514e-01 3.7213832029064503e-01 3.7610496172660762e-01  5.0037748576338326e-01 3.7931244858048213e-01 3.7736789653810265e-01  5.0139897607237149e-01 3.8546440001606480e-01 3.7851505200030905e-01  5.0228473568384446e-01 3.9066503167415739e-01 3.7955019883853330e-01  5.0300638554666155e-01 3.9480056845820394e-01 3.8042979017460626e-01  5.0372699032771062e-01 3.9875377857194511e-01 3.8138627318715851e-01  5.0433495131703054e-01 4.0195699962650316e-01 3.8224776455310555e-01  5.0525846032422117e-01 4.0673381200495878e-01 3.8357501768098540e-01  5.0883831046964390e-01 4.2460378725624565e-01 3.8880474903920548e-01  5.1045296106020077e-01 4.3229665541567225e-01 3.9121602079214463e-01  5.1193370486867140e-01 4.3911012766658863e-01 3.9346729613773113e-01  5.1335407378415043e-01 4.4542130170439509e-01 3.9566965550944716e-01  5.1474536775177515e-01 4.5138742696235118e-01 3.9787102044002992e-01  5.1613334189406179e-01 4.5713352867281648e-01 4.0010868054848459e-01  5.1756158698901467e-01 4.6284287495150539e-01 4.0244954324958376e-01  5.2068773008851987e-01 4.7473248731169032e-01 4.0767033130481839e-01  5.2171017134523701e-01 4.7844860542294826e-01 4.0940256031705008e-01  5.2248956288028003e-01 4.8120627762273049e-01 4.1073879938227553e-01  5.2306422879149272e-01 4.8318867058907311e-01 4.1173955836360920e-01  5.2367161560539499e-01 4.8518172102663409e-01 4.1284531004052083e-01  5.2413215626801402e-01 4.8661115171654545e-01 4.1372499887115405e-01  5.2469134342257628e-01 4.8830233819686036e-01 4.1481159820081337e-01  5.2531865874937478e-01 4.9015052890349697e-01 4.1604863324459396e-01  5.2598378417800473e-01 4.9205585826794751e-01 4.1737956553481403e-01  5.2667436203328477e-01 4.9397845046673650e-01 4.1877988096340718e-01  5.2737745743394027e-01 4.9587918996979369e-01 4.2022397334343153e-01  5.2807812623451877e-01 4.9771596450644712e-01 4.2168224924130271e-01  5.2875773357404654e-01 4.9944276959244521e-01 4.2311509488320520e-01  5.3005086064966511e-01 5.0255979980754784e-01 4.2590199075149726e-01  5.3083221659648039e-01 5.0433820282306707e-01 4.2762339228696744e-01  5.3166016538450867e-01 5.0614973836779520e-01 4.2947206386359127e-01  5.3252464000697664e-01 5.0796233821110892e-01 4.3142770812239795e-01  5.3341549609424022e-01 5.0974980140738779e-01 4.3346869598879340e-01  5.3432606787298820e-01 5.1149244155851936e-01 4.3558184943200345e-01  5.3525342254739161e-01 5.1318028992621856e-01 4.3776175622644803e-01  5.3619359740374173e-01 5.1480249636645847e-01 4.4000065015861861e-01  5.3714220874261698e-01 5.1634898503451676e-01 4.4228947222281695e-01  5.3809864696789211e-01 5.1781578963224129e-01 4.4462821012790016e-01  5.3906063054427511e-01 5.1919817837931970e-01 4.4701233573548588e-01  5.4002525379256128e-01 5.2049099001013255e-01 4.4943577875158625e-01  5.4099499347074642e-01 5.2169515731190985e-01 4.5190628871567101e-01  5.4196432645089998e-01 5.2280009524187943e-01 4.5441209445950764e-01  5.4294004295600362e-01 5.2381525251134142e-01 4.5697074376795344e-01  5.4485392690850087e-01 5.2552582877251641e-01 4.6209757035176086e-01  5.4576742862323580e-01 5.2620791495775032e-01 4.6459791281089358e-01  5.4667784774625383e-01 5.2680321749289227e-01 4.6712410771582824e-01  5.4759346898405492e-01 5.2731078679707499e-01 4.6970219238442457e-01  5.4851964565671485e-01 5.2773701119157512e-01 4.7234536608345284e-01  5.4947689094654362e-01 5.2808604022547645e-01 4.7511397298506347e-01  5.5051263384069804e-01 5.2836102364564830e-01 4.7815015665869454e-01  5.5302498581926762e-01 5.2865565067656417e-01 4.8566636946959113e-01  5.5391234872583806e-01 5.2862962261573354e-01 4.8837592787474243e-01  5.5465394743697294e-01 5.2854278217437678e-01 4.9066881011786595e-01  5.5530092429451705e-01 5.2841325628780111e-01 4.9269448273274369e-01  5.5587460803857924e-01 5.2825300410517084e-01 4.9451375811083925e-01  5.5638278299379651e-01 5.2807170562704320e-01 4.9614666571016475e-01  5.5682693819415674e-01 5.2787986334591697e-01 4.9759302041341136e-01  5.5719951869629947e-01 5.2769226074821007e-01 4.9882231718703351e-01  5.5766802500171875e-01 5.2740599900316054e-01 5.0039967686199505e-01  5.5797302863232057e-01 5.2718758179974901e-01 5.0144670493852161e-01  5.5834155251083439e-01 5.2690152641474963e-01 5.0272522643022122e-01  5.5933142531871216e-01 5.2604013776181779e-01 5.0621446086456989e-01  5.5974553347088651e-01 5.2564002595999604e-01 5.0769748078547250e-01  5.6011743585686424e-01 5.2525716152862945e-01 5.0904310788381713e-01  5.6046442110221462e-01 5.2487911071459437e-01 5.1031088164723692e-01  5.6079454608118151e-01 5.2449971665304940e-01 5.1152888413396980e-01  5.6111535215779362e-01 5.2411284172239614e-01 5.1272334488998916e-01  5.6143849955051739e-01 5.2370519924458825e-01 5.1393734618438491e-01  5.6217153796987973e-01 5.2272175314907698e-01 5.1672696129430007e-01  5.6241499541582718e-01 5.2237684320951849e-01 5.1766456570146180e-01  5.6261094725919825e-01 5.2209108292845674e-01 5.1842416690873305e-01  5.6277507038417263e-01 5.2184553776240761e-01 5.1906425055463379e-01  5.6291480932631344e-01 5.2163166947113815e-01 5.1961231875687652e-01  5.6303454942780107e-01 5.2144467636247593e-01 5.2008440362872177e-01  5.6313692843582130e-01 5.2128190009671360e-01 5.2048997624322890e-01  5.6322376698403442e-01 5.2114164090472059e-01 5.2083546531535130e-01  5.6329666682339485e-01 5.2102230332184574e-01 5.2112658047217131e-01  5.6335656396784450e-01 5.2092313914591992e-01 5.2136652819239415e-01  5.6340442008300173e-01 5.2084318486313241e-01 5.2155873356821036e-01  5.6344069252514173e-01 5.2078216163710622e-01 5.2170470114724976e-01  5.6346589979568895e-01 5.2073955397245830e-01 5.2180627398136337e-01  5.6348065980080886e-01 5.2071453382178590e-01 5.2186579658018695e-01  5.6348680005983243e-01 5.2070365009865871e-01 5.2189093136773823e-01  5.6349283500483416e-01 5.2069182143221648e-01 5.2191652700065982e-01  5.6350397591700219e-01 5.2067018608748372e-01 5.2196361539744984e-01  5.6352038367983481e-01 5.2063843386123143e-01 5.2203286898907120e-01  5.6354363582797107e-01 5.2059371207701122e-01 5.2213077897723614e-01  5.6360113284005220e-01 5.2048367418091679e-01 5.2237240448570210e-01  5.6360017503030335e-01 5.2048841850690708e-01 5.2236608175339438e-01  5.6360559082348982e-01 5.2048025863178005e-01 5.2238709215027890e-01  5.6361049046283085e-01 5.2047242016919149e-01 5.2240645877413050e-01  5.6361371806050464e-01 5.2046718528756475e-01 5.2241927197647764e-01  5.6361340768352242e-01 5.2046768976113211e-01 5.2241803901254824e-01  5.6360897704238588e-01 5.2047490246062811e-01 5.2240042851703994e-01  5.6360084964237922e-01 5.2048833210599266e-01 5.2236796275085440e-01  5.6366205429883331e-01 5.2035829634043729e-01 5.2263522844297194e-01  5.6370381688529747e-01 5.2027443183807054e-01 5.2281369735993244e-01  5.6374688425015451e-01 5.2018771890560100e-01 5.2299786833754802e-01  5.6379134371867379e-01 5.2009770033704472e-01 5.2318833101895446e-01  5.6383717432774383e-01 5.2000425423134966e-01 5.2338511868469628e-01  5.6388428743252517e-01 5.1990745205439115e-01 5.2358793113618129e-01  5.6393294764671686e-01 5.1980666155178712e-01 5.2379796914596777e-01  5.6398393949337267e-01 5.1970018729647904e-01 5.2401866389023988e-01  5.6403918066671566e-01 5.1958389413049633e-01 5.2425840239199428e-01  5.6417332583417357e-01 5.1929815417166214e-01 5.2484285928000562e-01  5.6422269924138402e-01 5.1919167582911041e-01 5.2505888325979733e-01  5.6426487422353400e-01 5.1909994468987886e-01 5.2524396203025470e-01  5.6430180914943329e-01 5.1901892093314261e-01 5.2540654004336129e-01  5.6433470754855808e-01 5.1894614931156535e-01 5.2555178784312018e-01  5.6436407842419112e-01 5.1888064671397605e-01 5.2568185299002557e-01  5.6439032850336013e-01 5.1882163564040318e-01 5.2579844439188239e-01  5.6441373247298665e-01 5.1876861387702033e-01 5.2590269877063067e-01  5.6443448530858120e-01 5.1872124515606133e-01 5.2599540762245123e-01  5.6445264232252967e-01 5.1867949920265177e-01 5.2607674736361176e-01  5.6446820658265084e-01 5.1864346213109558e-01 5.2614666276991973e-01  5.6448094633722068e-01 5.1861376334793752e-01 5.2620404358513162e-01  5.6449737635427666e-01 5.1857501722050670e-01 5.2627838657224579e-01  5.6450797470907832e-01 5.1854971327557264e-01 5.2632658070802185e-01  5.6451994239340708e-01 5.1852095839182533e-01 5.2638114007698045e-01  5.6453363458833461e-01 5.1848788241506760e-01 5.2644369536346269e-01  5.6456220892151854e-01 5.1841883845508707e-01 5.2657424193440805e-01  5.6456505618526809e-01 5.1841206321658317e-01 5.2658716681360640e-01  5.6456607386798952e-01 5.1840967114069225e-01 5.2659176299233401e-01  5.6456609429882532e-01 5.1840962319663486e-01 5.2659185519952534e-01  5.6456552071338284e-01 5.1841094411218580e-01 5.2658928627027635e-01  5.6456525874494601e-01 5.1841146283398587e-01 5.2658817949428094e-01  5.6456641467994229e-01 5.1840849738452199e-01 5.2659359538229566e-01  5.6457360041161575e-01 5.1839069130555271e-01 5.2662676726103452e-01  5.6457684229797300e-01 5.1838275677311330e-01 5.2664165451189582e-01  5.6457918924882167e-01 5.1837707694873836e-01 5.2665238112610790e-01  5.6458063551538695e-01 5.1837360608155159e-01 5.2665896807373436e-01  5.6458110536632589e-01 5.1837248030295668e-01 5.2666110654451581e-01  5.6458076304592197e-01 5.1837328926383353e-01 5.2665955738265913e-01  5.6457978930908570e-01 5.1837558810188522e-01 5.2665515252402539e-01  5.6457832711865152e-01 5.1837897837927560e-01 5.2664858663485981e-01  5.6458062837339218e-01 5.1837206810764791e-01 5.2666016080398148e-01  5.6458444622748150e-01 5.1836212520731062e-01 5.2667816361201580e-01  5.6458780723723900e-01 5.1835338169739265e-01 5.2669400415727841e-01  5.6459058550365437e-01 5.1834612919512313e-01 5.2670711756739974e-01  5.6459265013567250e-01 5.1834071282181993e-01 5.2671688352323354e-01  5.6459449195403033e-01 5.1833576744613263e-01 5.2672568480924131e-01  5.6459564765217729e-01 5.1833253974808990e-01 5.2673130543617930e-01  5.6459701526