<?xml version="1.0"?>
<VTKFile type="UnstructuredGrid"  version="0.1"  >
<UnstructuredGrid>
<Piece  NumberOfPoints="7288" NumberOfCells="14083">
<Points>
<DataArray  type="Float64"  NumberOfComponents="3"  format="ascii">239.8 188 0  250.2 180 0  258.2 172.4 0  257 169.4 0  259.9 157.4 0  258.7 150.3 0  261 143.5 0  251.7 144.4 0  250 138.7 0  247 138.1 0  245.2 130.8 0  247.3 126.4 0  242.7 118.6 0  231.2 107.7 0  226 102.4 0  226.5 93.90000000000001 0  224.5 91.19999999999999 0  224.5 84.09999999999999 0  234.5 73.80000000000001 0  228.4 68.90000000000001 0  230 70 0  233.4 68 0  222.7 61.5 0  220.6 45.5 0  223.4 49.40000000000001 0  224 47 0  221.8 43.09999999999999 0  221 38.40000000000001 0  219.5 38.5 0  219.4 41.69999999999999 0  217.1 36.90000000000001 0  209.7 36 0  209.5 31.69999999999999 0  205.1 29.90000000000001 0  201.5 30.40000000000001 0  199.2 38.69999999999999 0  201.8 41.40000000000001 0  194.8 53.80000000000001 0  196.1 57.69999999999999 0  193 59 0  191.4 66.09999999999999 0  193.5 66.5 0  194.1 64.40000000000001 0  195.6 64.69999999999999 0  195.4 72.40000000000001 0  199.5 77.30000000000001 0  197.7 86.90000000000001 0  200.6 87.5 0  201.5 91 0  198 94.80000000000001 0  198.6 100 0  197.3 105.4 0  198 109.5 0  197 112.7 0  198.3 116.1 0  201.3 122 0  207.2 121 0  208.1 126.7 0  205.6 127.9 0  209.1 134.9 0  210.9 144.4 0  210.1 147.9 0  213 148.4 0  215.4 149.3 0  215.1 152.8 0  219.9 159.7 0  220.3 163.2 0  218.7 164.9 0  219.9 166.7 0  221.9 169.7 0  220 170.3 0  224.9 174.7 0  229.8 177.4 0  229.7 181 0  228 172.9 0  239 178 0  240.4 180 0  239 181.5 0  241.2 185.9 0  242.95 187.99 0  240.5875 187.9975 0  241.375 187.995 0  242.1625 187.9925 0  243.6090909090879 187.2636363636397 0  244.2681818181765 186.5372727272785 0  244.9272727272692 185.810909090913 0  245.5863636363531 185.0845454545571 0  246.245454545445 184.3581818181923 0  246.9045454545351 183.6318181818295 0  247.5636363636303 182.9054545454612 0  248.2227272727197 182.1790909090992 0  248.8818181818179 181.4527272727275 0  249.5409090909066 180.7263636363664 0  250.8666666666961 179.3666666666387 0  251.5333333334033 178.7333333332668 0  252.2000000000994 178.0999999999055 0  252.8666666668011 177.466666666539 0  253.5333333335083 176.8333333331671 0  254.2000000002044 176.1999999998058 0  254.8666666669005 175.5666666664445 0  255.5333333336077 174.9333333330727 0  256.2000000002685 174.2999999997449 0  256.8666666668457 173.6666666664966 0  257.5333333334283 173.033333333243 0  257.9000000000077 171.6500000000191 0  257.6000000000015 170.9000000000038 0  257.2999999999954 170.1499999999885 0  257.2230769230778 168.4769230769195 0  257.4461538461543 167.5538461538442 0  257.6692307692309 166.6307692307688 0  257.8923076923074 165.7076923076935 0  258.115384615384 164.7846153846181 0  258.3384615384605 163.8615384615427 0  258.5615384615395 162.9384615384572 0  258.784615384616 162.0153846153819 0  259.0076923076926 161.0923076923065 0  259.2307692307691 160.1692307692311 0  259.4538461538457 159.2461538461558 0  259.6769230769222 158.3230769230804 0  259.750000000001 156.512500000006 0  259.6000000000014 155.6250000000082 0  259.4500000000029 154.7375000000176 0  259.3000000000018 153.8500000000108 0  259.1500000000007 152.962500000004 0  259.0000000000004 152.0750000000026 0  258.849999999999 151.187499999994 0  258.9875000000052 149.4499999999846 0  259.275000000002 148.5999999999941 0  259.5624999999954 147.7500000000135 0  259.849999999995 146.900000000015 0  260.1374999999945 146.0500000000164 0  260.4249999999913 145.2000000000259 0  260.7124999999948 144.3500000000154 0  260.0700000000398 143.5899999999961 0  259.1400000000573 143.6799999999944 0  258.2100000000351 143.7699999999966 0  257.2800000000262 143.8599999999975 0  256.350000000011 143.9499999999989 0  255.4199999999881 144.0400000000011 0  254.4899999999726 144.1300000000026 0  253.5599999999944 144.2200000000005 0  252.6300000000009 144.3099999999999 0  251.4166666666658 143.4499999999971 0  251.1333333333388 142.5000000000182 0  250.8500000000015 141.5500000000051 0  250.5666666666612 140.5999999999818 0  250.2833333333342 139.6500000000029 0  249.2500000000005 138.5500000000001 0  248.5000000000011 138.4000000000002 0  247.7499999999995 138.2499999999999 0  246.7750000000005 137.1875000000023 0  246.5500000000021 136.2750000000085 0  246.3250000000036 135.3625000000147 0  246.1000000000042 134.450000000017 0  245.8750000000022 133.5375000000088 0  245.650000000003 132.6250000000124 0  245.4250000000046 131.7125000000187 0  245.619999999996 129.9200000000084 0  246.0399999999992 129.0400000000017 0  246.4599999999987 128.1600000000028 0  246.8800000000001 127.2799999999997 0  246.8399999999988 125.6199999999979 0  246.3799999999984 124.8399999999973 0  245.9199999999991 124.0599999999985 0  245.4600000000036 123.2800000000062 0  245.0000000000049 122.5000000000082 0  244.5400000000036 121.7200000000062 0  244.0800000000033 120.9400000000056 0  243.6200000000016 120.1600000000027 0  243.1600000000012 119.3800000000021 0  241.9812499999996 117.9187499999997 0  241.2625000000007 117.2375000000007 0  240.5437500000017 116.5562500000017 0  239.8250000000041 115.875000000004 0  239.1062500000066 115.1937500000063 0  238.3875000000076 114.5125000000072 0  237.6687500000087 113.8312500000082 0  236.9500000000083 113.1500000000079 0  236.231250000008 112.4687500000076 0  235.512500000009 111.7875000000085 0  234.7937500000045 111.1062500000043 0  234.0750000000042 110.4250000000039 0  233.3562500000066 109.7437500000062 0  232.6375000000021 109.062500000002 0  231.9187500000031 108.381250000003 0  230.5500000000004 107.0375000000004 0  229.9000000000021 106.3750000000021 0  229.2500000000038 105.7125000000039 0  228.6000000000041 105.0500000000042 0  227.9500000000018 104.3875000000018 0  227.2999999999952 103.7249999999951 0  226.6500000000024 103.0625000000024 0  226.0555555555555 101.4555555555556 0  226.1111111111111 100.5111111111111 0  226.1666666666667 99.56666666666668 0  226.2222222222222 98.62222222222223 0  226.2777777777778 97.67777777777778 0  226.3333333333333 96.73333333333335 0  226.3888888888889 95.78888888888889 0  226.4444444444445 94.84444444444446 0  226 93.22499999999999 0  225.5000000000026 92.55000000000358 0  225.0000000000026 91.87500000000358 0  224.5 90.31250000000068 0  224.5 89.4250000000097 0  224.5 88.53750000001317 0  224.5 87.65000000001388 0  224.5 86.76250000001457 0  224.5 85.87500000001248 0  224.5 84.9874999999993 0  225.1666666666659 83.41333333333409 0  225.8333333333319 82.72666666666818 0  226.4999999999978 82.04000000000228 0  227.1666666666649 81.35333333333514 0  227.8333333333301 80.66666666667 0  228.4999999999942 79.980000000006 0  229.1666666666601 79.2933333333401 0  229.8333333333316 78.60666666666847 0  230.4999999999975 77.92000000000257 0  231.1666666666644 77.23333333333572 0  231.8333333333295 76.54666666667057 0  232.4999999999972 75.86000000000287 0  233.1666666666681 75.17333333333181 0  233.8333333333368 74.48666666666306 0  233.7499999999995 73.16666666666629 0  233.0000000000018 72.53333333333488 0  232.2500000000014 71.90000000000116 0  231.5000000000009 71.26666666666743 0  230.7500000000005 70.63333333333372 0  229.233333333333 68.75000000000006 0  230.0666666666665 68.60000000000004 0  230.8999999999995 68.45000000000009 0  231.7333333333325 68.30000000000015 0  232.566666666667 68.14999999999995 0  232.5499999999897 68.50000000000607 0  231.7 69 0  230.8500000000103 69.49999999999393 0  227.8300000000008 68.16000000000106 0  227.2600000000064 67.42000000000837 0  226.6900000000077 66.68000000001001 0  226.1200000000024 65.94000000000314 0  225.5500000000108 65.20000000001409 0  224.9800000000098 64.46000000001268 0  224.4100000000007 63.72000000000098 0  223.8399999999971 62.97999999999621 0  223.2699999999993 62.23999999999915 0  222.753846153846 60.56923076923239 0  222.8076923076921 59.63846153846478 0  222.8615384615381 58.70769230769827 0  222.9153846153842 57.77692307693071 0  222.9692307692302 56.84615384616315 0  223.0230769230761 55.91538461539836 0  223.0769230769224 54.98461538462665 0  223.1307692307688 54.05384615385345 0  223.184615384615 53.12307692308312 0  223.2384615384611 52.19230769231556 0  223.2923076923071 51.26153846154906 0  223.3461538461533 50.33076923077847 0  222.8400000000024 48.62000000000327 0  222.2800000000047 47.84000000000661 0  221.7200000000005 47.06000000000071 0  221.1600000000003 46.28000000000039 0  221.4500000000116 45.87500000000512 0  222.3 46.25 0  223.1499999999884 46.62499999999488 0  223.5600000000055 46.22000000000981 0  223.1199999999987 45.43999999999767 0  222.6800000000061 44.66000000001075 0  222.2399999999969 43.8799999999944 0  221.6400000000004 42.16000000000253 0  221.4800000000009 41.22000000000548 0  221.3200000000014 40.28000000000801 0  221.1600000000009 39.34000000000556 0  220.25 38.45 0  219.4749999999999 39.30000000000165 0  219.45 40.09999999999999 0  219.425 40.90000000000112 0  219.0166666666641 40.89999999999463 0  218.6333333333375 40.10000000000875 0  218.2500000000016 39.30000000000339 0  217.8666666666635 38.49999999999351 0  217.483333333337 37.70000000000762 0  216.1750000000165 36.78750000000201 0  215.2500000000275 36.67500000000335 0  214.3250000000385 36.56250000000469 0  213.4000000000277 36.45000000000337 0  212.4750000000059 36.33750000000072 0  211.5499999999838 36.22499999999803 0  210.6249999999835 36.11249999999799 0  209.6600000000001 35.14000000000318 0  209.6200000000001 34.28000000000268 0  209.5800000000001 33.42000000000284 0  209.5399999999998 32.55999999999681 0  208.6200000000117 31.34000000000476 0  207.7400000000138 30.98000000000564 0  206.8600000000162 30.62000000000662 0  205.9800000000174 30.26000000000711 0  204.2000000000054 30.02499999999925 0  203.2999999999946 30.15000000000076 0  202.3999999999945 30.27500000000076 0  201.2444444444438 31.32222222222468 0  200.9888888888895 32.24444444
[...]
<PointData  Vectors="f_12"> 
<DataArray  type="Float64"  Name="f_12"  NumberOfComponents="3" format="ascii">6.4796786887654767e-01 5.1709314890313818e-01 7.1940385702693077e-01  6.4586536641374459e-01 4.9598954939704648e-01 7.3964014184478566e-01  6.4323668989128435e-01 4.7289073320742103e-01 7.6033029319045076e-01  6.4207545927791543e-01 4.6406550598216878e-01 7.6776342743308834e-01  6.3474473137220533e-01 4.1406596569913207e-01 8.0541904610752590e-01  6.3055709731826270e-01 3.8970734424732745e-01 8.2064338106506030e-01  6.2929095290476267e-01 3.8249384047752533e-01 8.2476498814244259e-01  6.2409840658272486e-01 3.5717679991856144e-01 8.3723790624483829e-01  6.1721739641086693e-01 3.2545852693168043e-01 8.4935528186572751e-01  6.1415927246636359e-01 3.1251383728727367e-01 8.5274386034898009e-01  6.0423819671038914e-01 2.7354305901438164e-01 8.5785029826351711e-01  6.0134600451129738e-01 2.6306994657807908e-01 8.5765653298432198e-01  5.9789293190844317e-01 2.5125666029181037e-01 8.5639738630626094e-01  5.9006097804570290e-01 2.2649496311139539e-01 8.5004291575054614e-01  5.8476672202993263e-01 2.1114919988518552e-01 8.4317039564439000e-01  5.7968019314420427e-01 1.9730445150081788e-01 8.3479114673176025e-01  5.7819425691400439e-01 1.9345345482273868e-01 8.3199411290501757e-01  5.7440426003013312e-01 1.8395123035066849e-01 8.2423924006077853e-01  5.7166611154775537e-01 1.7738104793535692e-01 8.1807355289527561e-01  5.7240928150858128e-01 1.7913989064561939e-01 8.1979360982755822e-01  5.7207938561665672e-01 1.7835629034667380e-01 8.1903532404212498e-01  5.7193846464897824e-01 1.7802252180733377e-01 8.1870943095844173e-01  5.7636786351409730e-01 1.8881095102017387e-01 8.2836022378668361e-01  5.8393629379286682e-01 2.0868505014895611e-01 8.4190135739895244e-01  5.8195205615949952e-01 2.0328261664224118e-01 8.3873344904119607e-01  5.8431339243726510e-01 2.0971652096935103e-01 8.4248264212761814e-01  5.8450639353045519e-01 2.1025458818007953e-01 8.4276998882921805e-01  5.8490421144965477e-01 2.1135651137456582e-01 8.4335899521976077e-01  5.8490426108594218e-01 2.1135668890903136e-01 8.4335906617755341e-01  5.8486681270472662e-01 2.1125912715864514e-01 8.4330217588344092e-01  5.8597759774619840e-01 2.1438342246255343e-01 8.4489027309242171e-01  5.8755468143197709e-01 2.1890702716819291e-01 8.4698647346924183e-01  5.8857061392179366e-01 2.2185377079227939e-01 8.4825481174895312e-01  5.8882375363837902e-01 2.2259385698331358e-01 8.4855778015312855e-01  5.8884920593270185e-01 2.2266845403792171e-01 8.4858789938758616e-01  5.8791351399722458e-01 2.1994414407423996e-01 8.4744664350860976e-01  5.8666454193553164e-01 2.1636069354568407e-01 8.4581294504581683e-01  5.8158307984879820e-01 2.0226619433158907e-01 8.3810477488730417e-01  5.8029267936608542e-01 1.9883787524616214e-01 8.3585629205960332e-01  5.7961684940644687e-01 1.9705540933254351e-01 8.3464343241620076e-01  5.7783837738689392e-01 1.9245808520671512e-01 8.3128938025764820e-01  5.7787979295881464e-01 1.9256511966417816e-01 8.3136949318560704e-01  5.7891357443352776e-01 1.9522736470253954e-01 8.3334061132510706e-01  5.7854987345030151e-01 1.9428974305404997e-01 8.3265227438004530e-01  5.7726109138745196e-01 1.9099362772158138e-01 8.3015615000616183e-01  5.7641948183636305e-01 1.8887821768798671e-01 8.2846828746145751e-01  5.7685115861176772e-01 1.8997063473240719e-01 8.2934655399358426e-01  5.7723924125509130e-01 1.9096046196210278e-01 8.3011931128023730e-01  5.7900793666715789e-01 1.9551623030410514e-01 8.3352098191448964e-01  5.8095453188697443e-01 2.0062314290670327e-01 8.3704580999445877e-01  5.8269504203842681e-01 2.0531868603195044e-01 8.3996246753919568e-01  5.8484842904731260e-01 2.1126195930764821e-01 8.4329930879519055e-01  5.8633850154896150e-01 2.1547715877937773e-01 8.4541423010465966e-01  5.8730331758810317e-01 2.1824368484546802e-01 8.4670765458092978e-01  5.8806916466134873e-01 2.2047200732003941e-01 8.4768367285627033e-01  5.8924488166342492e-01 2.2394352252879551e-01 8.4910536096958311e-01  5.9132632627211690e-01 2.3030240476331029e-01 8.5133616299310633e-01  5.9660223713592486e-01 2.4700765749350598e-01 8.5562944799441276e-01  5.9757349119639047e-01 2.5017335608460833e-01 8.5621193838934639e-01  6.0117602831234374e-01 2.6245347490248150e-01 8.5756613473320564e-01  6.0807113440363503e-01 2.8755406992165838e-01 8.5714660907850548e-01  6.0915214479937707e-01 2.9168072290662589e-01 8.5671466987639622e-01  6.0990722210213200e-01 2.9468866834165575e-01 8.5629144314294148e-01  6.1250804923793456e-01 3.0524045879631784e-01 8.5441254525500021e-01  6.1595864698087788e-01 3.1966611357390023e-01 8.5103951246592102e-01  6.2443481867448614e-01 3.5885216797709801e-01 8.3649230666710994e-01  6.2927482374440868e-01 3.8336230520280284e-01 8.2414029334695782e-01  6.3068499867465944e-01 3.9075947265808264e-01 8.1999689565103595e-01  6.3156416634888823e-01 3.9556881682513800e-01 8.1714069138077117e-01  6.3320935282621960e-01 4.0486662334596241e-01 8.1139309124854742e-01  6.3279963781597159e-01 4.0242016264845881e-01 8.1295682464435060e-01  6.3566965303903367e-01 4.1961011249062624e-01 8.0165848674528639e-01  6.4084848497377001e-01 4.5438250681902859e-01 7.7570287384276337e-01  6.4150769067698576e-01 4.5893095137387757e-01 7.7204380488760405e-01  6.3705688659022097e-01 4.2880940446365179e-01 7.9510759267894815e-01  6.4363167284338907e-01 4.7723512144864799e-01 7.5645396829261968e-01  6.4592960426904922e-01 4.9754816175096656e-01 7.3811192998160435e-01  6.4676246183506214e-01 5.0526741013886745e-01 7.3087947147457766e-01  6.4775556982103499e-01 5.1493816502830503e-01 7.2152210528639227e-01  6.4788396622424271e-01 5.1622173494531931e-01 7.2026326763798421e-01  6.4795711511472431e-01 5.1698238669353225e-01 7.1951311593555778e-01  6.4793388291320542e-01 5.1674187671889393e-01 7.1975038495267929e-01  6.4790734632548008e-01 5.1646547425639888e-01 7.2002302752552017e-01  6.4782478000744104e-01 5.1560970970266473e-01 7.2086529398686117e-01  6.4771870984179503e-01 5.1451497490834763e-01 7.2193985605060229e-01  6.4758124638032744e-01 5.1309915033213060e-01 7.2332519870100587e-01  6.4741947391194787e-01 5.1143831071837453e-01 7.2494366211182149e-01  6.4723717970196049e-01 5.0957540475377028e-01 7.2675051102720878e-01  6.4703947028782849e-01 5.0756588475797237e-01 7.2868910045224722e-01  6.4682620524364709e-01 5.0541584637781256e-01 7.3075109953180983e-01  6.4660137052490851e-01 5.0316930559367790e-01 7.3289229637415632e-01  6.4636817790913215e-01 5.0086286849663175e-01 7.3507590579825410e-01  6.4612330996599510e-01 4.9847267547534335e-01 7.3732286712988215e-01  6.4562150968804488e-01 4.9367274103580450e-01 7.4178684065938083e-01  6.4538241339795466e-01 4.9143397905101976e-01 7.4384641105661553e-01  6.4514069190847767e-01 4.8920750568379179e-01 7.4587987602701578e-01  6.4489635495408226e-01 4.8699376962930679e-01 7.4788715929015082e-01  6.4465107590654891e-01 4.8480788598352353e-01 7.4985472767401629e-01  6.4440690490097463e-01 4.8266665663942682e-01 7.5176832855725539e-01  6.4416377413352077e-01 4.8056992332888643e-01 7.5362881292251127e-01  6.4392612302918861e-01 4.7855323959895607e-01 7.5540596749996902e-01  6.4370057517866530e-01 4.7666880945916357e-01 7.5705557810055846e-01  6.4349572575084857e-01 4.7498266298563491e-01 7.5852269657733906e-01  6.4332858858548958e-01 4.7362634767327039e-01 7.5969648305139148e-01  6.4313709711369316e-01 4.7212034529537400e-01 7.6098840655002764e-01  6.4291797600612555e-01 4.7043897969819598e-01 7.6241782982500295e-01  6.4258583339558872e-01 4.6791214702395290e-01 7.6455015107824476e-01  6.4140959567596378e-01 4.5910413598949262e-01 7.7185286771564399e-01  6.4080888751635856e-01 4.5469626802636642e-01 7.7542658467356285e-01  6.4021848922207480e-01 4.5043373954646732e-01 7.7882448635401413e-01  6.3962902799828003e-01 4.4624681890465745e-01 7.8210607226474749e-01  6.3903966158687953e-01 4.4212842913756495e-01 7.8527923358196527e-01  6.3845187325443908e-01 4.3808736111324620e-01 7.8833970410346943e-01  6.3786831729597737e-01 4.3413975308957148e-01 7.9127806011163315e-01  6.3729174675470124e-01 4.3030068821371370e-01 7.9408702427689604e-01  6.3672687956974694e-01 4.2659857822424219e-01 7.9674931373897473e-01  6.3617580414785369e-01 4.2304310078250168e-01 7.9926297637169863e-01  6.3564829288200697e-01 4.1969001674741929e-01 8.0159487425181719e-01  6.3515556549319230e-01 4.1660345955149242e-01 8.0370762546055163e-01  6.3434347716389294e-01 4.1162947276849565e-01 8.0703618434197755e-01  6.3386389102599505e-01 4.0875394038884166e-01 8.0891726661966401e-01  6.3334502911150925e-01 4.0568045028313171e-01 8.1089602361885926e-01  6.3280510310783988e-01 4.0252071250154942e-01 8.1289605259842135e-01  6.3225431300919910e-01 3.9933446195764177e-01 8.1487688615648457e-01  6.3170039087373309e-01 3.9616376874045772e-01 8.1681207374422482e-01  6.3114251314100311e-01 3.9300107532959611e-01 8.1870654693227640e-01  6.3009098671321628e-01 3.8708252475847177e-01 8.2216420868192652e-01  6.2976940363033584e-01 3.8527404075589367e-01 8.2319754223194541e-01  6.2955582760737161e-01 3.8406433192579026e-01 8.2388211604056716e-01  6.2941455078814401e-01 3.8325567171699831e-01 8.2433676883399731e-01  6.2933386672761993e-01 3.8278204867804155e-01 8.2460228233590127e-01  6.2929725623956612e-01 3.8255466356382328e-01 8.2472993414350415e-01  6.2928903904288835e-01 3.8249048917362255e-01 8.2476648055107105e-01  6.2927645720918735e-01 3.8242537686182049e-01 8.2480226327306383e-01  6.2921494211285722e-01 3.8212711333988264e-01 8.2496479930500388e-01  6.2908645178502198e-01 3.8149556833235287e-01 8.2530807781593696e-01  6.2887786156036307e-01 3.8046496376377709e-01 8.2586485452753544e-01  6.2857012224741959e-01 3.7894060114947026e-01 8.2668018133277055e-01  6.2814649693299274e-01 3.7684292722418605e-01 8.2778611914234679e-01  6.2758616030595471e-01 3.7407797090876804e-01 8.2921418690870785e-01  6.2684977137102227e-01 3.7046612775721721e-01 8.3102760903448125e-01  6.2583284417663110e-01 3.6552095928179962e-01 8.3341440599521255e-01  6.2206947945861857e-01 3.4755415104218795e-01 8.4136291190427215e-01  6.2064924466365301e-01 3.4093256246760456e-01 8.4399825047737276e-01  6.1945154506940947e-01 3.3544322776744723e-01 8.4602931163022721e-01  6.1845384048671659e-01 3.3094028407743986e-01 8.4758976729759361e-01  6.1767134671761725e-01 3.2745464791915302e-01 8.4873255386870594e-01  6.1694496114646902e-01 3.2428310100445695e-01 8.4969801563818825e-01  6.1637118940069491e-01 3.2182648286581045e-01 8.5038836469902690e-01  6.1551947062568946e-01 3.1821659061441027e-01 8.5134430066374434e-01  6.1232580122549052e-01 3.0494002178642254e-01 8.5440302449600347e-01  6.1094490475604335e-01 2.9933663363355401e-01 8.5545144191055744e-01  6.0972034113076656e-01 2.9445148155914563e-01 8.5621894885482663e-01  6.0858407485655697e-01 2.8999043977463751e-01 8.5679542385271035e-01  6.0750640000578249e-01 2.8582351215962065e-01 8.5722273202263899e-01  6.0646275506118585e-01 2.8184580887306637e-01 8.5752916787758793e-01  6.0541695606849821e-01 2.7791462383419235e-01 8.5773345423270342e-01  6.0319234476715333e-01 2.6971026989469915e-01 8.5786499988636411e-01  6.0248062218645149e-01 2.6712897195973678e-01 8.5782258162853231e-01  6.0194669359424513e-01 2.6520944845162858e-01 8.5775970274711544e-01  6.0155980493515593e-01 2.6382848349442650e-01 8.5769746733648977e-01  6.0116887271827868e-01 2.6244763167021629e-01 8.5761601995220349e-01  6.0088725563580481e-01 2.6146355194192783e-01 8.5754525660766612e-01  6.0055117603286123e-01 2.6029538476686148e-01 8.5745215924625928e-01  6.0017959644893204e-01 2.5901081559653311e-01 8.5733865610987026e-01  5.9979169591509562e-01 2.5767741111735765e-01 8.5720844044856570e-01  5.9939438088648855e-01 2.5631941502602090e-01 8.5706254440062879e-01  5.9899506055800711e-01 2.5496228868974657e-01 8.5690321558184612e-01  5.9860253543333897e-01 2.5363575933730026e-01 8.5673424580472257e-01  5.9822643138771658e-01 2.5237165471796952e-01 8.5656083785251180e-01  5.9752575031390764e-01 2.5003654425449401e-01 8.5620555080027538e-01  5.9711042647385959e-01 2.4866447341928632e-01 8.5597511147614358e-01  5.9667443062730308e-01 2.4723238038408257e-01 8.5571887262915147e-01  5.9622175912468278e-01 2.4575449550584880e-01 8.5543684814413146e-01  5.9575703674650848e-01 2.4424637889556181e-01 8.5513088581316377e-01  5.9528306657883900e-01 2.4271777835507505e-01 8.5480157782826627e-01  5.9479997893841696e-01 2.4116959928316486e-01 8.5444802092089789e-01  5.9430873856912037e-01 2.3960537773380147e-01 8.5407007507114452e-01  5.9381094529693312e-01 2.3803054114464153e-01 8.5366834408509806e-01  5.9330494761391350e-01 2.3644038547900467e-01 8.5324056237432799e-01  5.9279076586703561e-01 2.3483531651825382e-01 8.5278610294413149e-01  5.9226913113133284e-01 2.3321800020211936e-01 8.5230491286877097e-01  5.9173584746025532e-01 2.3157609424603276e-01 8.5179196314488492e-01  5.9119431900076291e-01 2.2992096800954528e-01 8.5124894226721337e-01  5.9063725739502049e-01 2.2823071028681613e-01 8.5066777853895637e-01  5.8950639710994746e-01 2.2483697983739701e-01 8.4941871008640024e-01  5.8894523826238465e-01 2.2317174151282376e-01 8.4876416079801531e-01  5.8837103750146968e-01 2.2148024647081890e-01 8.4807121250284356e-01  5.8777492137632303e-01 2.1973833250808722e-01 8.4732546162128930e-01  5.8715340340959465e-01 2.1793670682627492e-01 8.4652031156220997e-01  5.8648811862543382e-01 2.1602463617137041e-01 8.4562682494904762e-01  5.8573842367111983e-01 2.1388992416885094e-01 8.4458040969948744e-01  5.8378157267018149e-01 2.0839812355051138e-01 8.4168475799494180e-01  5.8303628168476052e-01 2.0633677143332754e-01 8.4051972359366034e-01  5.8238777764511573e-01 2.0455921837653748e-01 8.3947369988328524e-01  5.8180114676288963e-01 2.0296451042621305e-01 8.3850166798290515e-01  5.8126365498272825e-01 2.0151435082586391e-01 8.3759013344815392e-01  5.8077256896391183e-01 2.0019863357519327e-01 8.3674006134966139e-01  5.8033093572161609e-01 1.9902298907036545e-01 8.3596179717003294e-01  5.7995122252251152e-01 1.9801802174623825e-01 8.3528236324139082e-01  5.7946142560607350e-01 1.9673233696348003e-01 8.3438862281324200e-01  5.7913481920051291e-01 1.9588198505163829e-01 8.3378126106339090e-01  5.7873176507395618e-01 1.9483799516507178e-01 8.3302184867434825e-01  5.7759903996519535e-01 1.9192956331389097e-01 8.3083768196584218e-01  5.7710251558554049e-01 1.9066648677885953e-01 8.2985684271458082e-01  5.7664537893094270e-01 1.8951101500573497e-01 8.2893930645540370e-01  5.7620969625705998e-01 1.8841650091552803e-01 8.2805183303346841e-01  5.7578530056620403e-01 1.8735682967642273e-01 8.2717505296187932e-01  5.7536606065181661e-01 1.8631631495642045e-01 8.2629676020824594e-01  5.7493315352201346e-01 1.8524824011054578e-01 8.2537758972157849e-01  5.7388656495441881e-01 1.8268940620029711e-01 8.2311044286332724e-01  5.7351180868966856e-01 1.8178112758424181e-01 8.2228324588499457e-01  5.7319993705065397e-01 1.8102899899484945e-01 8.2158767566549695e-01  5.7293123840516824e-01 1.8038380997363959e-01 8.2098312632704284e-01  5.7269689616062691e-01 1.7982325259328599e-01 8.2045195751777233e-01  5.7249192029592189e-01 1.7933455993553132e-01 8.1998441692049040e-01  5.7231328661439751e-01 1.7890990736392640e-01 8.1957474642941841e-01  5.7215886453288722e-01 1.7854374407718832e-01 8.1921894811195173e-01  5.7202699735259099e-01 1.7823174014275955e-01 8.1891392248591077e-01  5.7191658128477385e-01 1.7797097352975758e-01 8.1865766896672765e-01  5.7182682015896169e-01 1.7775930695031314e-01 8.1844878984986336e-01  5.7175722016118413e-01 1.7759538035496769e-01 8.1828647906529761e-01  5.7170751649899165e-01 1.7747841872660489e-01 8.1817038287605137e-01  5.7167772080206392e-01 1.7740834486419402e-01 8.1810071337191892e-01  5.7167896179833388e-01 1.7741127845564841e-01 8.1810361873035631e-01  5.7171400602807754e-01 1.7749375674603388e-01 8.1818555491814660e-01  5.7177199816881896e-01 1.7763034177760822e-01 8.1832097555658034e-01  5.7185284487515298e-01 1.7782095313802562e-01 8.1850941104721997e-01  5.7195598255956037e-01 1.7806445174979108e-01 8.1874922231610980e-01  5.7218619686657224e-01 1.7860964622223863e-01 8.1928162574246521e-01  5.7207530694692521e-01 1.7834651867132240e-01 8.1902617178699988e-01  5.7201354565333407e-01 1.7820017006249883e-01 8.1888345697374187e-01  5.7197374492255981e-01 1.7810596095633771e-01 8.1879127742174795e-01  5.7194980202714729e-01 1.7804932794565115e-01 8.1873574616229716e-01  5.7195208520423413e-01 1.7805472664979971e-01 8.1874104498883671e-01  5.7198382739838749e-01 1.7812981292724395e-01 8.1881465506306383e-01  5.7203285532012227e-01 1.7824588976139952e-01 8.1892814878114917e-01  5.7273050224847655e-01 1.7990556395441276e-01 8.2052664573217471e-01  5.7301708281959496e-01 1.8059119792285033e-01 8.2117562706649716e-01  5.7331165678185503e-01 1.8129882465660310e-01 8.2183711330399389e-01  5.7362520090433933e-01 1.8205526502961666e-01 8.2253490151544206e-01  5.7396360879590169e-01 1.8287544953708959e-01 8.2328071342331344e-01  5.7433122908147771e-01 1.8377082464008954e-01 8.2408226820660568e-01  5.7473407327219872e-01 1.8475724361767384e-01 8.2495017194123077e-01  5.7518182160698594e-01 1.8586000805880443e-01 8.2590188426328826e-01  5.7569703690299345e-01 1.8713696858466236e-01 8.2698028654737488e-01  5.7705511069167348e-01 1.9053805278696245e-01 8.2974825877979808e-01  5.7760481799057850e-01 1.9192934170317741e-01 8.3083740878601109e-01  5.7811144284383920e-01 1.9322013358922274e-01 8.3182321647303714e-01  5.7859133429432796e-01 1.9445073446061920e-01 8.3274068915186616e-01  5.7905381658370314e-01 1.9564388770972493e-01 8.3361013964308284e-01  5.7950009444785966e-01 1.9680196898887942e-01 8.3443543762799099e-01  5.7993057552271110e-01 1.9792529637241210e-01 8.3521888147769408e-01  5.8034401498922228e-01 1.9900990686048123e-01 8.3595968964777045e-01  5.8073802645712791e-01 2.0004877748515223e-01 8.3665516970005060e-01  5.8110776550184318e-01 2.0102832887551600e-01 8.3729845675590719e-01  5.8144709943391082e-01 2.0193134563533968e-01 8.3788092539252990e-01  5.8174405828128672e-01 2.0272483178247325e-01 8.3838445365885550e-01  5.8217396982837533e-01 2.0388079477088461e-01 8.3910061273183145e-01  5.8248576985842959e-01 2.0472450048852475e-01 8.3961035041863219e-01  5.8285800380912500e-01 2.0573589299073311e-01 8.4021020004303448e-01  5.8330302431760339e-01 2.0695030081184065e-01 8.4091530590805963e-01  5.8421365170189932e-01 2.0944453213279962e-01 8.4232938627003906e-01  5.8428651411834198e-01 2.0964351842452542e-01 8.4244146019525812e-01  5.8430778666296590e-01 2.0970134439585611e-01 8.4247407646316785e-01  5.8430819999641859e-01 2.0970246837088391e-01 8.4247470642233113e-01  5.8430054747839855e-01 2.0968205160628722e-01 8.4246285124449460e-01  5.8431039237104143e-01 2.0971034800338012e-01 8.4247710576249191e-01  5.8437365373086669e-01 2.0988636471819994e-01 8.4257162654839557e-01  5.8466586959926747e-01 2.1069675000278315e-01 8.4300732086388408e-01  5.8478041296473804e-01 2.1101420780874128e-01 8.4317686996177121e-01  5.8485209184883358e-01 2.1121254662336622e-01 8.4328251251806785e-01  5.8489114563578937e-01 2.1132043918550319e-01 8.4333985395138533e-01  5.8490349845115186e-01 2.1135456517319359e-01 8.4335794912539241e-01  5.8489640660655362e-01 2.1133508849217017e-01 8.4334755635836178e-01  5.8487658301856560e-01 2.1128070461817453e-01 8.4331843749092417e-01  5.8485719008104575e-01 2.1122844776368715e-01 8.4328962725648271e-01  5.8515525398875268e-01 2.1206823510133230e-01 8.4372130109351184e-01  5.8539089268652011e-01 2.1272971319969214e-01 8.4406069632875524e-01  5.8559635680283417e-01 2.1330759150955780e-01 8.4435376692148711e-01  5.8577035256319610e-01 2.1379794357440066e-01 8.4459982817409696e-01  5.8590427535184619e-01 2.1417605534225603e-01 8.4478787119162069e-01  5.8604404344634320e-01 2.1457203307731129e-01 8.4498235663632060e-01  5.8615421108325849e-01 2.1488538226714440e-01 8.4513420712724308e-01  5.8629293874