<?xml version="1.0"?>
<VTKFile type="UnstructuredGrid"  version="0.1"  >
<UnstructuredGrid>
<Piece  NumberOfPoints="7288" NumberOfCells="14083">
<Points>
<DataArray  type="Float64"  NumberOfComponents="3"  format="ascii">239.8 188 0  250.2 180 0  258.2 172.4 0  257 169.4 0  259.9 157.4 0  258.7 150.3 0  261 143.5 0  251.7 144.4 0  250 138.7 0  247 138.1 0  245.2 130.8 0  247.3 126.4 0  242.7 118.6 0  231.2 107.7 0  226 102.4 0  226.5 93.90000000000001 0  224.5 91.19999999999999 0  224.5 84.09999999999999 0  234.5 73.80000000000001 0  228.4 68.90000000000001 0  230 70 0  233.4 68 0  222.7 61.5 0  220.6 45.5 0  223.4 49.40000000000001 0  224 47 0  221.8 43.09999999999999 0  221 38.40000000000001 0  219.5 38.5 0  219.4 41.69999999999999 0  217.1 36.90000000000001 0  209.7 36 0  209.5 31.69999999999999 0  205.1 29.90000000000001 0  201.5 30.40000000000001 0  199.2 38.69999999999999 0  201.8 41.40000000000001 0  194.8 53.80000000000001 0  196.1 57.69999999999999 0  193 59 0  191.4 66.09999999999999 0  193.5 66.5 0  194.1 64.40000000000001 0  195.6 64.69999999999999 0  195.4 72.40000000000001 0  199.5 77.30000000000001 0  197.7 86.90000000000001 0  200.6 87.5 0  201.5 91 0  198 94.80000000000001 0  198.6 100 0  197.3 105.4 0  198 109.5 0  197 112.7 0  198.3 116.1 0  201.3 122 0  207.2 121 0  208.1 126.7 0  205.6 127.9 0  209.1 134.9 0  210.9 144.4 0  210.1 147.9 0  213 148.4 0  215.4 149.3 0  215.1 152.8 0  219.9 159.7 0  220.3 163.2 0  218.7 164.9 0  219.9 166.7 0  221.9 169.7 0  220 170.3 0  224.9 174.7 0  229.8 177.4 0  229.7 181 0  228 172.9 0  239 178 0  240.4 180 0  239 181.5 0  241.2 185.9 0  242.95 187.99 0  240.5875 187.9975 0  241.375 187.995 0  242.1625 187.9925 0  243.6090909090879 187.2636363636397 0  244.2681818181765 186.5372727272785 0  244.9272727272692 185.810909090913 0  245.5863636363531 185.0845454545571 0  246.245454545445 184.3581818181923 0  246.9045454545351 183.6318181818295 0  247.5636363636303 182.9054545454612 0  248.2227272727197 182.1790909090992 0  248.8818181818179 181.4527272727275 0  249.5409090909066 180.7263636363664 0  250.8666666666961 179.3666666666387 0  251.5333333334033 178.7333333332668 0  252.2000000000994 178.0999999999055 0  252.8666666668011 177.466666666539 0  253.5333333335083 176.8333333331671 0  254.2000000002044 176.1999999998058 0  254.8666666669005 175.5666666664445 0  255.5333333336077 174.9333333330727 0  256.2000000002685 174.2999999997449 0  256.8666666668457 173.6666666664966 0  257.5333333334283 173.033333333243 0  257.9000000000077 171.6500000000191 0  257.6000000000015 170.9000000000038 0  257.2999999999954 170.1499999999885 0  257.2230769230778 168.4769230769195 0  257.4461538461543 167.5538461538442 0  257.6692307692309 166.6307692307688 0  257.8923076923074 165.7076923076935 0  258.115384615384 164.7846153846181 0  258.3384615384605 163.8615384615427 0  258.5615384615395 162.9384615384572 0  258.784615384616 162.0153846153819 0  259.0076923076926 161.0923076923065 0  259.2307692307691 160.1692307692311 0  259.4538461538457 159.2461538461558 0  259.6769230769222 158.3230769230804 0  259.750000000001 156.512500000006 0  259.6000000000014 155.6250000000082 0  259.4500000000029 154.7375000000176 0  259.3000000000018 153.8500000000108 0  259.1500000000007 152.962500000004 0  259.0000000000004 152.0750000000026 0  258.849999999999 151.187499999994 0  258.9875000000052 149.4499999999846 0  259.275000000002 148.5999999999941 0  259.5624999999954 147.7500000000135 0  259.849999999995 146.900000000015 0  260.1374999999945 146.0500000000164 0  260.4249999999913 145.2000000000259 0  260.7124999999948 144.3500000000154 0  260.0700000000398 143.5899999999961 0  259.1400000000573 143.6799999999944 0  258.2100000000351 143.7699999999966 0  257.2800000000262 143.8599999999975 0  256.350000000011 143.9499999999989 0  255.4199999999881 144.0400000000011 0  254.4899999999726 144.1300000000026 0  253.5599999999944 144.2200000000005 0  252.6300000000009 144.3099999999999 0  251.4166666666658 143.4499999999971 0  251.1333333333388 142.5000000000182 0  250.8500000000015 141.5500000000051 0  250.5666666666612 140.5999999999818 0  250.2833333333342 139.6500000000029 0  249.2500000000005 138.5500000000001 0  248.5000000000011 138.4000000000002 0  247.7499999999995 138.2499999999999 0  246.7750000000005 137.1875000000023 0  246.5500000000021 136.2750000000085 0  246.3250000000036 135.3625000000147 0  246.1000000000042 134.450000000017 0  245.8750000000022 133.5375000000088 0  245.650000000003 132.6250000000124 0  245.4250000000046 131.7125000000187 0  245.619999999996 129.9200000000084 0  246.0399999999992 129.0400000000017 0  246.4599999999987 128.1600000000028 0  246.8800000000001 127.2799999999997 0  246.8399999999988 125.6199999999979 0  246.3799999999984 124.8399999999973 0  245.9199999999991 124.0599999999985 0  245.4600000000036 123.2800000000062 0  245.0000000000049 122.5000000000082 0  244.5400000000036 121.7200000000062 0  244.0800000000033 120.9400000000056 0  243.6200000000016 120.1600000000027 0  243.1600000000012 119.3800000000021 0  241.9812499999996 117.9187499999997 0  241.2625000000007 117.2375000000007 0  240.5437500000017 116.5562500000017 0  239.8250000000041 115.875000000004 0  239.1062500000066 115.1937500000063 0  238.3875000000076 114.5125000000072 0  237.6687500000087 113.8312500000082 0  236.9500000000083 113.1500000000079 0  236.231250000008 112.4687500000076 0  235.512500000009 111.7875000000085 0  234.7937500000045 111.1062500000043 0  234.0750000000042 110.4250000000039 0  233.3562500000066 109.7437500000062 0  232.6375000000021 109.062500000002 0  231.9187500000031 108.381250000003 0  230.5500000000004 107.0375000000004 0  229.9000000000021 106.3750000000021 0  229.2500000000038 105.7125000000039 0  228.6000000000041 105.0500000000042 0  227.9500000000018 104.3875000000018 0  227.2999999999952 103.7249999999951 0  226.6500000000024 103.0625000000024 0  226.0555555555555 101.4555555555556 0  226.1111111111111 100.5111111111111 0  226.1666666666667 99.56666666666668 0  226.2222222222222 98.62222222222223 0  226.2777777777778 97.67777777777778 0  226.3333333333333 96.73333333333335 0  226.3888888888889 95.78888888888889 0  226.4444444444445 94.84444444444446 0  226 93.22499999999999 0  225.5000000000026 92.55000000000358 0  225.0000000000026 91.87500000000358 0  224.5 90.31250000000068 0  224.5 89.4250000000097 0  224.5 88.53750000001317 0  224.5 87.65000000001388 0  224.5 86.76250000001457 0  224.5 85.87500000001248 0  224.5 84.9874999999993 0  225.1666666666659 83.41333333333409 0  225.8333333333319 82.72666666666818 0  226.4999999999978 82.04000000000228 0  227.1666666666649 81.35333333333514 0  227.8333333333301 80.66666666667 0  228.4999999999942 79.980000000006 0  229.1666666666601 79.2933333333401 0  229.8333333333316 78.60666666666847 0  230.4999999999975 77.92000000000257 0  231.1666666666644 77.23333333333572 0  231.8333333333295 76.54666666667057 0  232.4999999999972 75.86000000000287 0  233.1666666666681 75.17333333333181 0  233.8333333333368 74.48666666666306 0  233.7499999999995 73.16666666666629 0  233.0000000000018 72.53333333333488 0  232.2500000000014 71.90000000000116 0  231.5000000000009 71.26666666666743 0  230.7500000000005 70.63333333333372 0  229.233333333333 68.75000000000006 0  230.0666666666665 68.60000000000004 0  230.8999999999995 68.45000000000009 0  231.7333333333325 68.30000000000015 0  232.566666666667 68.14999999999995 0  232.5499999999897 68.50000000000607 0  231.7 69 0  230.8500000000103 69.49999999999393 0  227.8300000000008 68.16000000000106 0  227.2600000000064 67.42000000000837 0  226.6900000000077 66.68000000001001 0  226.1200000000024 65.94000000000314 0  225.5500000000108 65.20000000001409 0  224.9800000000098 64.46000000001268 0  224.4100000000007 63.72000000000098 0  223.8399999999971 62.97999999999621 0  223.2699999999993 62.23999999999915 0  222.753846153846 60.56923076923239 0  222.8076923076921 59.63846153846478 0  222.8615384615381 58.70769230769827 0  222.9153846153842 57.77692307693071 0  222.9692307692302 56.84615384616315 0  223.0230769230761 55.91538461539836 0  223.0769230769224 54.98461538462665 0  223.1307692307688 54.05384615385345 0  223.184615384615 53.12307692308312 0  223.2384615384611 52.19230769231556 0  223.2923076923071 51.26153846154906 0  223.3461538461533 50.33076923077847 0  222.8400000000024 48.62000000000327 0  222.2800000000047 47.84000000000661 0  221.7200000000005 47.06000000000071 0  221.1600000000003 46.28000000000039 0  221.4500000000116 45.87500000000512 0  222.3 46.25 0  223.1499999999884 46.62499999999488 0  223.5600000000055 46.22000000000981 0  223.1199999999987 45.43999999999767 0  222.6800000000061 44.66000000001075 0  222.2399999999969 43.8799999999944 0  221.6400000000004 42.16000000000253 0  221.4800000000009 41.22000000000548 0  221.3200000000014 40.28000000000801 0  221.1600000000009 39.34000000000556 0  220.25 38.45 0  219.4749999999999 39.30000000000165 0  219.45 40.09999999999999 0  219.425 40.90000000000112 0  219.0166666666641 40.89999999999463 0  218.6333333333375 40.10000000000875 0  218.2500000000016 39.30000000000339 0  217.8666666666635 38.49999999999351 0  217.483333333337 37.70000000000762 0  216.1750000000165 36.78750000000201 0  215.2500000000275 36.67500000000335 0  214.3250000000385 36.56250000000469 0  213.4000000000277 36.45000000000337 0  212.4750000000059 36.33750000000072 0  211.5499999999838 36.22499999999803 0  210.6249999999835 36.11249999999799 0  209.6600000000001 35.14000000000318 0  209.6200000000001 34.28000000000268 0  209.5800000000001 33.42000000000284 0  209.5399999999998 32.55999999999681 0  208.6200000000117 31.34000000000476 0  207.7400000000138 30.98000000000564 0  206.8600000000162 30.62000000000662 0  205.9800000000174 30.26000000000711 0  204.2000000000054 30.02499999999925 0  203.2999999999946 30.15000000000076 0  202.3999999999945 30.27500000000076 0  201.2444444444438 31.32222222222468 0  200.9888888888895 32.24444444
[...]
<PointData  Vectors="f_12"> 
<DataArray  type="Float64"  Name="f_12"  NumberOfComponents="3" format="ascii">5.0641436339374435e-01 1.6244844496463121e-01 5.3228310491362874e-01  5.0525294689569467e-01 1.6201051587738041e-01 5.2700117767394883e-01  5.0391730281390401e-01 1.6164081633246513e-01 5.2080354621512392e-01  5.0331960560994626e-01 1.6156693565134239e-01 5.1796591832644046e-01  4.9951689207395095e-01 1.6181301455228805e-01 4.9927157347798623e-01  4.9731085979104322e-01 1.6282166047218863e-01 4.8776176993355314e-01  4.9663416033788471e-01 1.6314865794726707e-01 4.8418028607758540e-01  4.9404363485037811e-01 1.6681372974281664e-01 4.6914275209510636e-01  4.9076285749309895e-01 1.7329317076480247e-01 4.4876224288347399e-01  4.8945769339534284e-01 1.7771658299783991e-01 4.3951196015250371e-01  4.8595645469656995e-01 1.9690909462942061e-01 4.1030989213556901e-01  4.8522649845365895e-01 2.0435938941676579e-01 4.0220730665578680e-01  4.8478715915768350e-01 2.1665638599086104e-01 3.9292833477089067e-01  4.8579646867364140e-01 2.5480078759404112e-01 3.7662515278857983e-01  4.8771205531270906e-01 2.8209148839120146e-01 3.7100121247158729e-01  4.8987686710062156e-01 3.0600780282171436e-01 3.6832422874264115e-01  4.9059649815406375e-01 3.1279533497846795e-01 3.6805744900437176e-01  4.9249823289405747e-01 3.2947241629406632e-01 3.6795591092767166e-01  4.9379342128930087e-01 3.3999578345411841e-01 3.6827006152582142e-01  4.9393681762464253e-01 3.4108400246623205e-01 3.6834678768429951e-01  4.9389128840720803e-01 3.4074146888595525e-01 3.6832065169928302e-01  4.9392080570075542e-01 3.4097325738927586e-01 3.6833137906574098e-01  4.9450633068372279e-01 3.4534150994615354e-01 3.6868048837976330e-01  4.9512396430025168e-01 3.4985145444996812e-01 3.6909008872025834e-01  4.9501997352185029e-01 3.4910370565694299e-01 3.6901511215606064e-01  4.9514593533351176e-01 3.5000938724835862e-01 3.6910588421859103e-01  4.9515224891729737e-01 3.5005432790497071e-01 3.6911071865445655e-01  4.9517207048798906e-01 3.5019631597804846e-01 3.6912526054407752e-01  4.9517203999930182e-01 3.5019609527770246e-01 3.6912523981718398e-01  4.9516553436130301e-01 3.5014916543105917e-01 3.6912069990306295e-01  4.9520094636055606e-01 3.5040120669005514e-01 3.6914777380337577e-01  4.9523931333751281e-01 3.5067262546993527e-01 3.6917817882948767e-01  4.9526581065729536e-01 3.5086005660744601e-01 3.6919913708049329e-01  4.9527184966485949e-01 3.5090270334391688e-01 3.6920395737926215e-01  4.9527214978128475e-01 3.5090479953147302e-01 3.6920421383323970e-01  4.9524417954297845e-01 3.5070671032660505e-01 3.6918227517307778e-01  4.9520159938221098e-01 3.5040418558079406e-01 3.6914944723133325e-01  4.9493483511774855e-01 3.4849097347199953e-01 3.6895359550152906e-01  4.9481118296422100e-01 3.4759142385179304e-01 3.6886987684315442e-01  4.9473901894676908e-01 3.4706578170874319e-01 3.6882108358636934e-01  4.9442840370162605e-01 3.4477107050542899e-01 3.6862842605982193e-01  4.9443253342441335e-01 3.4480011480072087e-01 3.6863196499882128e-01  4.9463068016088063e-01 3.4626733738341653e-01 3.6875329123157113e-01  4.9456270187919227e-01 3.4576358326923312e-01 3.6871212213669136e-01  4.9421228558666347e-01 3.4313571290051742e-01 3.6851573607452298e-01  4.9350992661392618e-01 3.3770421483581714e-01 3.6820358519795360e-01  4.9239319507794516e-01 3.2876016098722149e-01 3.6783843053034848e-01  4.9210514029966407e-01 3.2630826226020038e-01 3.6782123226659025e-01  4.9106509489811162e-01 3.1730715823799743e-01 3.6780602660490935e-01  4.9016585372115212e-01 3.0927078660444007e-01 3.6789124063927375e-01  4.8944307983761193e-01 3.0232403366277077e-01 3.6821621324524512e-01  4.8860992335904918e-01 2.9388822569241008e-01 3.6880219152482163e-01  4.8804341468784451e-01 2.8772242796422404e-01 3.6942826667381951e-01  4.8768542184828351e-01 2.8366903854188169e-01 3.6990414855181775e-01  4.8738634162342032e-01 2.8002873610702950e-01 3.7044466420904759e-01  4.8691517244654103e-01 2.7379216756032349e-01 3.7157594223956614e-01  4.8615597917862280e-01 2.6069474407364601e-01 3.7514744789150323e-01  4.8499371597646246e-01 2.3392638285485387e-01 3.8427464767750324e-01  4.8486085488919634e-01 2.2962475365787913e-01 3.8599847656509662e-01  4.8493316138428977e-01 2.1522957965507841e-01 3.9454206639867528e-01  4.8613168159358272e-01 1.9383373159303094e-01 4.1293975977460012e-01  4.8641407506906476e-01 1.9108865128789326e-01 4.1596969279801171e-01  4.8669510503433361e-01 1.8943834319234695e-01 4.1838898662672197e-01  4.8768648321548486e-01 1.8417294221410954e-01 4.2657740217737455e-01  4.8906075723754316e-01 1.7803656346088129e-01 4.3722267207570253e-01  4.9307220130942259e-01 1.6826707595804580e-01 4.6338988941666920e-01  4.9548458495843128e-01 1.6472920627805759e-01 4.7758158953792129e-01  4.9618663669006879e-01 1.6387898721088967e-01 4.8157937121679717e-01  4.9664269937671185e-01 1.6345293583601406e-01 4.8409504811545062e-01  4.9752121584538517e-01 1.6277494794638137e-01 4.8885201640237069e-01  4.9728464402517969e-01 1.6290017522165667e-01 4.8760333414733326e-01  4.9889716512944116e-01 1.6203801353057140e-01 4.9609225217937775e-01  5.0191492723204889e-01 1.6146288875997525e-01 5.1121688423126288e-01  5.0227125796756134e-01 1.6142277783173950e-01 5.1296639020335910e-01  4.9974475628943699e-01 1.6185758768022246e-01 5.0037825136748604e-01  5.0378629342579428e-01 1.6171386931269588e-01 5.2014157645293868e-01  5.0520783774542710e-01 1.6205509977137164e-01 5.2676606836350059e-01  5.0570613483396698e-01 1.6219859977988721e-01 5.2906277215201591e-01  5.0629114051655810e-01 1.6240104863290594e-01 5.3172575254876853e-01  5.0636607493636987e-01 1.6242902770245971e-01 5.3206515621302330e-01  5.0640814500933407e-01 1.6244598297460050e-01 5.3225502398239499e-01  5.0639474369258264e-01 1.6244062529871481e-01 5.3219452954072366e-01  5.0637948927650656e-01 1.6243445723995864e-01 5.3212569607456428e-01  5.0633208176453692e-01 1.6241549013469889e-01 5.3191158854469922e-01  5.0627130626156935e-01 1.6239139137036873e-01 5.3163687160238238e-01  5.0619288362125026e-01 1.6236043667513275e-01 5.3128210904753315e-01  5.0610112166706800e-01 1.6232445371409537e-01 5.3086657669732384e-01  5.0599842331130462e-01 1.6228452935897966e-01 5.3040096114075375e-01  5.0588801748879342e-01 1.6224201355861384e-01 5.2989972658473783e-01  5.0576996324227042e-01 1.6219721928413661e-01 5.2936292560187170e-01  5.0564679096676923e-01 1.6215121823693512e-01 5.2880192849213092e-01  5.0552056601860829e-01 1.6210492321848879e-01 5.2822599979009888e-01  5.0538945405738800e-01 1.6205803744915590e-01 5.2762656543486830e-01  5.0512542570914742e-01 1.6196723914933009e-01 5.2641582186500369e-01  5.0500168505917153e-01 1.6192649271869883e-01 5.2584665901616634e-01  5.0487754756617220e-01 1.6188713028783830e-01 5.2527441325978363e-01  5.0475290319071509e-01 1.6184916623851453e-01 5.2469856486589639e-01  5.0462853424931065e-01 1.6181287783009909e-01 5.2412270885546419e-01  5.0450533246067863e-01 1.6177850825294532e-01 5.2355101035379104e-01  5.0438302367822896e-01 1.6174611961168095e-01 5.2298216515170282e-01  5.0426370919366581e-01 1.6171622633831365e-01 5.2242600622489288e-01  5.0415059029205067e-01 1.6168953424910720e-01 5.2189755625999446e-01  5.0404778346153434e-01 1.6166682798499082e-01 5.2141623404086213e-01  5.0396372125445021e-01 1.6164957813900788e-01 5.2102181500308054e-01  5.0386610439315227e-01 1.6163334344650113e-01 5.2056151252020466e-01  5.0375326281402033e-01 1.6161800850795738e-01 5.2002716181426589e-01  5.0358216474907536e-01 1.6159660970932732e-01 5.1921520194919268e-01  5.0297785666785988e-01 1.6153357323251796e-01 5.1633427333774540e-01  5.0266958081988955e-01 1.6151025746185815e-01 5.1485578460984915e-01  5.0236613694640986e-01 1.6149499238224801e-01 5.1339325082862219e-01  5.0206244564071190e-01 1.6148800281513992e-01 5.1192202619782579e-01  5.0175795682953139e-01 1.6148977764061639e-01 5.1043921328155750e-01  5.0145342063156673e-01 1.6150069651789137e-01 5.0894830472073049e-01  5.0115027074179663e-01 1.6152098147447769e-01 5.0745623327887701e-01  5.0085003327178357e-01 1.6155057832391384e-01 5.0597063042442814e-01  5.0055528763450963e-01 1.6158936745098038e-01 5.0450428542848924e-01  5.0026717620626415e-01 1.6163725599229037e-01 5.0306311518161495e-01  4.9999097073371246e-01 1.6169267431012316e-01 5.0167416134518794e-01  4.9973261920876622e-01 1.6175385354701749e-01 5.0036803437221067e-01  4.9930567923255309e-01 1.6188134142574773e-01 4.9819101182490888e-01  4.9905303580105986e-01 1.6197243691090799e-01 4.9689177370305898e-01  4.9877964294596494e-01 1.6208096675826680e-01 4.9547843683341219e-01  4.9849511856447648e-01 1.6220467280001882e-01 4.9399952062070107e-01  4.9820491034853109e-01 1.6234163979260441e-01 4.9248272915964825e-01  4.9791312849498476e-01 1.6248951136916190e-01 4.9094956307221094e-01  4.9761928797300459e-01 1.6264788959077453e-01 4.8939771739293531e-01  4.9706463341429546e-01 1.6295666229038550e-01 4.8645483252867810e-01  4.9689421024403818e-01 1.6304991772313349e-01 4.8554861529098048e-01  4.9678023158814771e-01 1.6310762863706521e-01 4.8494356569365904e-01  4.9670412567290584e-01 1.6314210698082621e-01 4.8454073752055676e-01  4.9665987069174433e-01 1.6315669604408839e-01 4.8430852680500314e-01  4.9663901953155259e-01 1.6315792204346968e-01 4.8420135915853962e-01  4.9663356489951799e-01 1.6315246809831205e-01 4.8417567594940264e-01  4.9662712303473194e-01 1.6315874154361867e-01 4.8414009671720876e-01  4.9659678247365835e-01 1.6319838467777842e-01 4.8396831560208475e-01  4.9653283767606970e-01 1.6327824975259356e-01 4.8360747620108641e-01  4.9642857091190890e-01 1.6340737750899520e-01 4.8301875164981012e-01  4.9627428377060673e-01 1.6359961621808991e-01 4.8214536812985648e-01  4.9606159415305334e-01 1.6387011449208552e-01 4.8093584565512754e-01  4.9578034786422059e-01 1.6424062668468209e-01 4.7932529767253257e-01  4.9541140516119048e-01 1.6474901522916643e-01 4.7719357178221317e-01  4.9490377586886880e-01 1.6548664862079759e-01 4.7422857446830524e-01  4.9305063806505078e-01 1.6847353666602377e-01 4.6317653727025404e-01  4.9236550805123697e-01 1.6972539379299625e-01 4.5898517865357141e-01  4.9179579805770923e-01 1.7086816146296424e-01 4.5543089214067151e-01  4.9132886464357739e-01 1.7189356269450565e-01 4.5246014859117406e-01  4.9096841001505565e-01 1.7275423373759657e-01 4.5012371566568565e-01  4.9064278225764946e-01 1.7365588525051442e-01 4.4793827582349449e-01  4.9039297867325243e-01 1.7444869642515504e-01 4.4620086652701396e-01  4.9002840798802560e-01 1.7567634141979913e-01 4.4362194378591091e-01  4.8871456645526379e-01 1.8061008082631499e-01 4.3401626233213264e-01  4.8817707650321945e-01 1.8293573826706030e-01 4.2990031464522277e-01  4.8772019515610460e-01 1.8513548951998585e-01 4.2626749277415721e-01  4.8731507022648407e-01 1.8730828442303551e-01 4.2291377449450029e-01  4.8694936504114056e-01 1.8949764928303597e-01 4.1975186684409177e-01  4.8661322555339881e-01 1.9174119372229270e-01 4.1671015282949547e-01  4.8629457524749686e-01 1.9411020734354545e-01 4.1368542306141681e-01  4.8567383068545766e-01 1.9948292370030438e-01 4.0735187027520375e-01  4.8549177092518103e-01 2.0129573016028662e-01 4.0535648675153363e-01  4.8536222994444755e-01 2.0270215966200331e-01 4.0386958317982247e-01  4.8527310516559147e-01 2.0375551922910101e-01 4.0279770511456964e-01  4.8519211232895387e-01 2.0490030757422473e-01 4.0171851724832192e-01  4.8514117892467551e-01 2.0579361124932616e-01 4.0094302488358707e-01  4.8508469841489388e-01 2.0689315858609403e-01 4.0002188486674106e-01  4.8502708592948091e-01 2.0814404962129224e-01 3.9900944527356097e-01  4.8497230673772229e-01 2.0949019019686629e-01 3.9795841180631802e-01  4.8492185327342585e-01 2.1090906724771835e-01 3.9688928125787842e-01  4.8487703795245080e-01 2.1237595208233995e-01 3.9582292971906041e-01  4.8483905244485953e-01 2.1386072549797741e-01 3.9478271352356714e-01  4.8480863957474141e-01 2.1532331567931018e-01 3.9379520863039669e-01  4.8477100994455308e-01 2.1817703193383522e-01 3.9198407801261920e-01  4.8476096448542838e-01 2.1994714852289624e-01 3.9093133532154101e-01  4.8475909914985366e-01 2.2185626856785307e-01 3.8984325760649008e-01  4.8476670487399154e-01 2.2388751018530847e-01 3.8873598351512789e-01  4.8478437154496584e-01 2.2602089011351720e-01 3.8762372336618467e-01  4.8481286951529279e-01 2.2824512733387176e-01 3.8651676505060872e-01  4.8485281008830372e-01 2.3055714460405322e-01 3.8541989449229225e-01  4.8490466178218961e-01 2.3295081352411101e-01 3.8433888062878163e-01  4.8496869526399861e-01 2.3541812305585669e-01 3.8327949825726793e-01  4.8504550813824471e-01 2.3796142910538831e-01 3.8224338880957726e-01  4.8513532373165907e-01 2.4057748432131076e-01 3.8123334239287754e-01  4.8523826594930491e-01 2.4326105146703997e-01 3.8025274394739439e-01  4.8535527631208292e-01 2.4602330215157964e-01 3.7929998906510332e-01  4.8548655392905382e-01 2.4885312551226410e-01 3.7838213976442792e-01  4.8563316960916558e-01 2.5177248293644588e-01 3.7749200827155072e-01  4.8596407711239509e-01 2.5771400647924680e-01 3.7584404967619395e-01  4.8614365493387957e-01 2.6065855203249588e-01 3.7510539459576608e-01  4.8633682238274634e-01 2.6366517221251018e-01 3.7439987576865774e-01  4.8654700710066667e-01 2.6677052888081365e-01 3.7372402325420001e-01  4.8677538786603386e-01 2.6999370837231207e-01 3.7307238606506765e-01  4.8702864118114997e-01 2.7341630178952320e-01 3.7243213225789518e-01  4.8732263595476299e-01 2.7722815614533858e-01 3.7177500944064162e-01  4.8811144638127224e-01 2.8689689213702596e-01 3.7030212022404929e-01  4.8841803144346230e-01 2.9046909200220211e-01 3.6982503158516589e-01  4.8868912387235941e-01 2.9353677955360036e-01 3.6945040082226560e-01  4.8893830390430421e-01 2.9628188709956976e-01 3.6914533300052194e-01  4.8917016966598387e-01 2.9877434905189981e-01 3.6889428875569585e-01  4.8938515669373217e-01 3.0103289156222157e-01 3.6868952510995273e-01  4.8958130970164027e-01 3.0305002657092661e-01 3.6852608256809266e-01  4.8975254089511555e-01 3.0477666067970399e-01 3.6840194873051013e-01  4.8998078017063607e-01 3.0701304417331848e-01 3.6827266472851633e-01  4.9013784534918048e-01 3.0851206188166319e-01 3.6820570006137332e-01  4.9033376390532124e-01 3.1035589920628331e-01 3.6813548911508298e-01  4.9088725577518288e-01 3.1545770517858773e-01 3.6798868961702363e-01  4.9113105801437651e-01 3.1765931445239337e-01 3.6794548555315715e-01  4.9135759577302190e-01 3.1967771048980620e-01 3.6791830606489045e-01  4.9157588823261694e-01 3.2159818962591158e-01 3.6790383113263497e-01  4.9179031685157537e-01 3.2346145918653135e-01 3.6790081409011988e-01  4.9200507438853996e-01 3.2530615393489570e-01 3.6790788797278551e-01  4.9222782180242158e-01 3.2719865107144397e-01 3.6792485102988259e-01  4.9275446897161707e-01 3.3160564546748839e-01 3.6799470902192360e-01  4.9293614503492189e-01 3.3310506525691336e-01 3.6802777330380554e-01  4.9308547472357650e-01 3.3432807324933794e-01 3.6805914829706809e-01  4.9321293023535534e-01 3.3536466557369871e-01 3.6808930034038773e-01  4.9332329529461955e-01 3.3625662967797187e-01 3.6811809515952437e-01  4.9341929462051093e-01 3.3702814836548295e-01 3.6814524313247743e-01  4.9350247665331082e-01 3.3769332925636725e-01 3.6817038939650898e-01  4.9357385878361310e-01 3.3826166287514003e-01 3.6819318320579880e-01  4.9363438100073270e-01 3.3874174662546930e-01 3.6821337941752946e-01  4.9368451904036997e-01 3.3913822553132789e-01 3.6823070870357300e-01  4.9372484321597904e-01 3.3945630112104097e-01 3.6824503095265576e-01  4.9375555190851111e-01 3.3969806841191813e-01 3.6825615741741352e-01  4.9377695268492489e-01 3.3986633696910878e-01 3.6826401212002624e-01  4.9378950201853455e-01 3.3996493107998516e-01 3.6826865301479944e-01  4.9379511713794466e-01 3.4000853716441837e-01 3.6827105017009459e-01  4.9380159675104812e-01 3.4005772881876384e-01 3.6827453212590516e-01  4.9381338242214623e-01 3.4014736213340641e-01 3.6828075613414663e-01  4.9383063616861012e-01 3.4027865638458343e-01 3.6828980369979042e-01  4.9385482299890587e-01 3.4046291275700302e-01 3.6830232290031967e-01  4.9391411899439602e-01 3.4091495737697741e-01 3.6833267824334193e-01  4.9391032220060482e-01 3.4088869117122156e-01 3.6832902526136152e-01  4.9391374886549244e-01 3.4091682039708798e-01 3.6832948317335934e-01  4.9391727771421268e-01 3.4094511423039187e-01 3.6833038569083948e-01  4.9391966566808243e-01 3.4096416767554544e-01 3.6833105535721594e-01  4.9391943531568366e-01 3.4096233107445251e-01 3.6833098991230012e-01  4.9391612936648627e-01 3.4093598626679467e-01 3.6833004105476996e-01  4.9390984399575133e-01 3.4088614555854557e-01 3.6832807315645716e-01  4.9398526128756703e-01 3.4144879572612735e-01 3.6837424160925170e-01  4.9403197519457748e-01 3.4180078558694071e-01 3.6840044430616470e-01  4.9408031145743248e-01 3.4216459556830403e-01 3.6842767438821589e-01  4.9413064738947221e-01 3.4254279103649515e-01 3.6845630563833992e-01  4.9418313006669962e-01 3.4293629338676018e-01 3.6848652058233733e-01  4.9423778530562951e-01 3.4334516250287639e-01 3.6851840137197805e-01  4.9429502911908169e-01 3.4377238752489131e-01 3.6855224443865192e-01  4.9435587909329987e-01 3.4422545096937890e-01 3.6858868845227094e-01  4.9442278703484471e-01 3.4472242974652406e-01 3.6862925812843889e-01  4.9458888722560773e-01 3.4595186593528099e-01 3.6873165659962226e-01  4.9465152963134790e-01 3.4641387574824584e-01 3.6877093668114347e-01  4.9470598882366312e-01 3.4681459449562374e-01 3.6880549507095300e-01  4.9475455590387446e-01 3.4717113100017488e-01 3.6883669642571665e-01  4.9479860526521863e-01 3.4749379193314323e-01 3.6886533489794404e-01  4.9483865265274524e-01 3.4778651702737229e-01 3.6889167618237756e-01  4.9487509668456175e-01 3.4805236905995968e-01 3.6891591401473550e-01  4.9490817510403395e-01 3.4829321334195129e-01 3.6893814426673838e-01  4.9493802701279777e-01 3.4851018061592415e-01 3.6895840321826445e-01  4.9496460315329049e-01 3.4870301770537715e-01 3.6897660608447064e-01  4.9498777730755439e-01 3.4887090917058333e-01 3.6899261688421314e-01  4.9500706785732468e-01 3.4901046319519985e-01 3.6900605425060601e-01  4.9503267836098086e-01 3.4919531427556172e-01 3.6902413758664032e-01  4.9504972179855078e-01 3.4931804585833209e-01 3.6903633646861767e-01  4.9506928347919560e-01 3.4945874340214056e-01 3.6905042823594431e-01  4.9509198037848007e-01 3.4962181991061658e-01 3.6906686267792005e-01  4.9513937588680379e-01 3.4996217845384403e-01 3.6910121251199868e-01  4.9514390189001883e-01 3.4999473352545513e-01 3.6910444996118669e-01  4.9514546366868450e-01 3.5000598533242200e-01 3.6910555369518133e-01  4.9514549486931525e-01 3.5000621016009315e-01 3.6910557570355940e-01  4.9514466599865176e-01 3.5000022081266668e-01 3.6910500239948479e-01  4.9514444621783010e-01 3.4999857345598834e-01 3.6910489107021599e-01  4.9514668683266860e-01 3.5001455072015070e-01 3.6910658764039023e-01  4.9515943520377242e-01 3.5010576258475246e-01 3.6911602418955836e-01  4.9516499759976829e-01 3.5014559814653978e-01 3.6912011181179738e-01  4.9516890007676606e-01 3.5017357200621863e-01 3.6912296002470724e-01  4.9517124815247904e-01 3.5019041546197266e-01 3.6912466478252981e-01  4.9517200739098588e-01 3.5019586218117915e-01 3.6912521557377148e-01  4.9517147587508648e-01 3.5019204352910682e-01 3.6912483393001333e-01  4.9516996816460640e-01 3.5018120968705080e-01 3.6912375245868806e-01  4.9516782243254132e-01 3.5016575743360789e-01 3.6912223674962752e-01  4.9517424705755658e-01 3.5021114827576472e-01 3.6912738847324467e-01  4.9518197283431792e-01 3.5026616849564934e-01 3.6913327473091451e-01  4.9518876195926304e-01 3.5031451238629607e-01 3.6913844825571973e-01  4.9519442719760287e-01 3.5035483673345813e-01 3.6914277476109858e-01  4.9519869280774453e-01 3.5038518413651942e-01 3.6914604132503948e-01  4.9520272448713093e-01 3.5041381988921488e-01 3.6914916099197909e-01  4.9520550304486982e-01 3.5043350696407422e-01 3.6915134428217328e-01  4.9520888608