<?xml version="1.0"?>
<VTKFile type="UnstructuredGrid"  version="0.1"  >
<UnstructuredGrid>
<Piece  NumberOfPoints="7288" NumberOfCells="14083">
<Points>
<DataArray  type="Float64"  NumberOfComponents="3"  format="ascii">239.8 188 0  250.2 180 0  258.2 172.4 0  257 169.4 0  259.9 157.4 0  258.7 150.3 0  261 143.5 0  251.7 144.4 0  250 138.7 0  247 138.1 0  245.2 130.8 0  247.3 126.4 0  242.7 118.6 0  231.2 107.7 0  226 102.4 0  226.5 93.90000000000001 0  224.5 91.19999999999999 0  224.5 84.09999999999999 0  234.5 73.80000000000001 0  228.4 68.90000000000001 0  230 70 0  233.4 68 0  222.7 61.5 0  220.6 45.5 0  223.4 49.40000000000001 0  224 47 0  221.8 43.09999999999999 0  221 38.40000000000001 0  219.5 38.5 0  219.4 41.69999999999999 0  217.1 36.90000000000001 0  209.7 36 0  209.5 31.69999999999999 0  205.1 29.90000000000001 0  201.5 30.40000000000001 0  199.2 38.69999999999999 0  201.8 41.40000000000001 0  194.8 53.80000000000001 0  196.1 57.69999999999999 0  193 59 0  191.4 66.09999999999999 0  193.5 66.5 0  194.1 64.40000000000001 0  195.6 64.69999999999999 0  195.4 72.40000000000001 0  199.5 77.30000000000001 0  197.7 86.90000000000001 0  200.6 87.5 0  201.5 91 0  198 94.80000000000001 0  198.6 100 0  197.3 105.4 0  198 109.5 0  197 112.7 0  198.3 116.1 0  201.3 122 0  207.2 121 0  208.1 126.7 0  205.6 127.9 0  209.1 134.9 0  210.9 144.4 0  210.1 147.9 0  213 148.4 0  215.4 149.3 0  215.1 152.8 0  219.9 159.7 0  220.3 163.2 0  218.7 164.9 0  219.9 166.7 0  221.9 169.7 0  220 170.3 0  224.9 174.7 0  229.8 177.4 0  229.7 181 0  228 172.9 0  239 178 0  240.4 180 0  239 181.5 0  241.2 185.9 0  242.95 187.99 0  240.5875 187.9975 0  241.375 187.995 0  242.1625 187.9925 0  243.6090909090879 187.2636363636397 0  244.2681818181765 186.5372727272785 0  244.9272727272692 185.810909090913 0  245.5863636363531 185.0845454545571 0  246.245454545445 184.3581818181923 0  246.9045454545351 183.6318181818295 0  247.5636363636303 182.9054545454612 0  248.2227272727197 182.1790909090992 0  248.8818181818179 181.4527272727275 0  249.5409090909066 180.7263636363664 0  250.8666666666961 179.3666666666387 0  251.5333333334033 178.7333333332668 0  252.2000000000994 178.0999999999055 0  252.8666666668011 177.466666666539 0  253.5333333335083 176.8333333331671 0  254.2000000002044 176.1999999998058 0  254.8666666669005 175.5666666664445 0  255.5333333336077 174.9333333330727 0  256.2000000002685 174.2999999997449 0  256.8666666668457 173.6666666664966 0  257.5333333334283 173.033333333243 0  257.9000000000077 171.6500000000191 0  257.6000000000015 170.9000000000038 0  257.2999999999954 170.1499999999885 0  257.2230769230778 168.4769230769195 0  257.4461538461543 167.5538461538442 0  257.6692307692309 166.6307692307688 0  257.8923076923074 165.7076923076935 0  258.115384615384 164.7846153846181 0  258.3384615384605 163.8615384615427 0  258.5615384615395 162.9384615384572 0  258.784615384616 162.0153846153819 0  259.0076923076926 161.0923076923065 0  259.2307692307691 160.1692307692311 0  259.4538461538457 159.2461538461558 0  259.6769230769222 158.3230769230804 0  259.750000000001 156.512500000006 0  259.6000000000014 155.6250000000082 0  259.4500000000029 154.7375000000176 0  259.3000000000018 153.8500000000108 0  259.1500000000007 152.962500000004 0  259.0000000000004 152.0750000000026 0  258.849999999999 151.187499999994 0  258.9875000000052 149.4499999999846 0  259.275000000002 148.5999999999941 0  259.5624999999954 147.7500000000135 0  259.849999999995 146.900000000015 0  260.1374999999945 146.0500000000164 0  260.4249999999913 145.2000000000259 0  260.7124999999948 144.3500000000154 0  260.0700000000398 143.5899999999961 0  259.1400000000573 143.6799999999944 0  258.2100000000351 143.7699999999966 0  257.2800000000262 143.8599999999975 0  256.350000000011 143.9499999999989 0  255.4199999999881 144.0400000000011 0  254.4899999999726 144.1300000000026 0  253.5599999999944 144.2200000000005 0  252.6300000000009 144.3099999999999 0  251.4166666666658 143.4499999999971 0  251.1333333333388 142.5000000000182 0  250.8500000000015 141.5500000000051 0  250.5666666666612 140.5999999999818 0  250.2833333333342 139.6500000000029 0  249.2500000000005 138.5500000000001 0  248.5000000000011 138.4000000000002 0  247.7499999999995 138.2499999999999 0  246.7750000000005 137.1875000000023 0  246.5500000000021 136.2750000000085 0  246.3250000000036 135.3625000000147 0  246.1000000000042 134.450000000017 0  245.8750000000022 133.5375000000088 0  245.650000000003 132.6250000000124 0  245.4250000000046 131.7125000000187 0  245.619999999996 129.9200000000084 0  246.0399999999992 129.0400000000017 0  246.4599999999987 128.1600000000028 0  246.8800000000001 127.2799999999997 0  246.8399999999988 125.6199999999979 0  246.3799999999984 124.8399999999973 0  245.9199999999991 124.0599999999985 0  245.4600000000036 123.2800000000062 0  245.0000000000049 122.5000000000082 0  244.5400000000036 121.7200000000062 0  244.0800000000033 120.9400000000056 0  243.6200000000016 120.1600000000027 0  243.1600000000012 119.3800000000021 0  241.9812499999996 117.9187499999997 0  241.2625000000007 117.2375000000007 0  240.5437500000017 116.5562500000017 0  239.8250000000041 115.875000000004 0  239.1062500000066 115.1937500000063 0  238.3875000000076 114.5125000000072 0  237.6687500000087 113.8312500000082 0  236.9500000000083 113.1500000000079 0  236.231250000008 112.4687500000076 0  235.512500000009 111.7875000000085 0  234.7937500000045 111.1062500000043 0  234.0750000000042 110.4250000000039 0  233.3562500000066 109.7437500000062 0  232.6375000000021 109.062500000002 0  231.9187500000031 108.381250000003 0  230.5500000000004 107.0375000000004 0  229.9000000000021 106.3750000000021 0  229.2500000000038 105.7125000000039 0  228.6000000000041 105.0500000000042 0  227.9500000000018 104.3875000000018 0  227.2999999999952 103.7249999999951 0  226.6500000000024 103.0625000000024 0  226.0555555555555 101.4555555555556 0  226.1111111111111 100.5111111111111 0  226.1666666666667 99.56666666666668 0  226.2222222222222 98.62222222222223 0  226.2777777777778 97.67777777777778 0  226.3333333333333 96.73333333333335 0  226.3888888888889 95.78888888888889 0  226.4444444444445 94.84444444444446 0  226 93.22499999999999 0  225.5000000000026 92.55000000000358 0  225.0000000000026 91.87500000000358 0  224.5 90.31250000000068 0  224.5 89.4250000000097 0  224.5 88.53750000001317 0  224.5 87.65000000001388 0  224.5 86.76250000001457 0  224.5 85.87500000001248 0  224.5 84.9874999999993 0  225.1666666666659 83.41333333333409 0  225.8333333333319 82.72666666666818 0  226.4999999999978 82.04000000000228 0  227.1666666666649 81.35333333333514 0  227.8333333333301 80.66666666667 0  228.4999999999942 79.980000000006 0  229.1666666666601 79.2933333333401 0  229.8333333333316 78.60666666666847 0  230.4999999999975 77.92000000000257 0  231.1666666666644 77.23333333333572 0  231.8333333333295 76.54666666667057 0  232.4999999999972 75.86000000000287 0  233.1666666666681 75.17333333333181 0  233.8333333333368 74.48666666666306 0  233.7499999999995 73.16666666666629 0  233.0000000000018 72.53333333333488 0  232.2500000000014 71.90000000000116 0  231.5000000000009 71.26666666666743 0  230.7500000000005 70.63333333333372 0  229.233333333333 68.75000000000006 0  230.0666666666665 68.60000000000004 0  230.8999999999995 68.45000000000009 0  231.7333333333325 68.30000000000015 0  232.566666666667 68.14999999999995 0  232.5499999999897 68.50000000000607 0  231.7 69 0  230.8500000000103 69.49999999999393 0  227.8300000000008 68.16000000000106 0  227.2600000000064 67.42000000000837 0  226.6900000000077 66.68000000001001 0  226.1200000000024 65.94000000000314 0  225.5500000000108 65.20000000001409 0  224.9800000000098 64.46000000001268 0  224.4100000000007 63.72000000000098 0  223.8399999999971 62.97999999999621 0  223.2699999999993 62.23999999999915 0  222.753846153846 60.56923076923239 0  222.8076923076921 59.63846153846478 0  222.8615384615381 58.70769230769827 0  222.9153846153842 57.77692307693071 0  222.9692307692302 56.84615384616315 0  223.0230769230761 55.91538461539836 0  223.0769230769224 54.98461538462665 0  223.1307692307688 54.05384615385345 0  223.184615384615 53.12307692308312 0  223.2384615384611 52.19230769231556 0  223.2923076923071 51.26153846154906 0  223.3461538461533 50.33076923077847 0  222.8400000000024 48.62000000000327 0  222.2800000000047 47.84000000000661 0  221.7200000000005 47.06000000000071 0  221.1600000000003 46.28000000000039 0  221.4500000000116 45.87500000000512 0  222.3 46.25 0  223.1499999999884 46.62499999999488 0  223.5600000000055 46.22000000000981 0  223.1199999999987 45.43999999999767 0  222.6800000000061 44.66000000001075 0  222.2399999999969 43.8799999999944 0  221.6400000000004 42.16000000000253 0  221.4800000000009 41.22000000000548 0  221.3200000000014 40.28000000000801 0  221.1600000000009 39.34000000000556 0  220.25 38.45 0  219.4749999999999 39.30000000000165 0  219.45 40.09999999999999 0  219.425 40.90000000000112 0  219.0166666666641 40.89999999999463 0  218.6333333333375 40.10000000000875 0  218.2500000000016 39.30000000000339 0  217.8666666666635 38.49999999999351 0  217.483333333337 37.70000000000762 0  216.1750000000165 36.78750000000201 0  215.2500000000275 36.67500000000335 0  214.3250000000385 36.56250000000469 0  213.4000000000277 36.45000000000337 0  212.4750000000059 36.33750000000072 0  211.5499999999838 36.22499999999803 0  210.6249999999835 36.11249999999799 0  209.6600000000001 35.14000000000318 0  209.6200000000001 34.28000000000268 0  209.5800000000001 33.42000000000284 0  209.5399999999998 32.55999999999681 0  208.6200000000117 31.34000000000476 0  207.7400000000138 30.98000000000564 0  206.8600000000162 30.62000000000662 0  205.9800000000174 30.26000000000711 0  204.2000000000054 30.02499999999925 0  203.2999999999946 30.15000000000076 0  202.3999999999945 30.27500000000076 0  201.2444444444438 31.32222222222468 0  200.9888888888895 32.24444444
[...]
<PointData  Vectors="f_12"> 
<DataArray  type="Float64"  Name="f_12"  NumberOfComponents="3" format="ascii">5.4048540126661782e-01 2.1547880546468826e-01 6.4751512874262618e-01  5.3940506161097768e-01 2.1279917303504017e-01 6.4499096037195003e-01  5.3804921591023258e-01 2.0952557106176442e-01 6.4171645395760257e-01  5.3738049738146942e-01 2.0797663912808587e-01 6.4004556764475740e-01  5.3267874676055138e-01 1.9768764733775454e-01 6.2753411691108674e-01  5.2940833019721323e-01 1.9129342270342756e-01 6.1798870322193122e-01  5.2842648980684837e-01 1.8938020448285203e-01 6.1502828273579824e-01  5.2311796027057877e-01 1.8138554015238953e-01 5.9745899058800844e-01  5.1584225873121914e-01 1.7202193756913178e-01 5.7102530435927112e-01  5.1234488593715743e-01 1.6891277864139029e-01 5.5686603103503052e-01  5.0101303224179328e-01 1.6324434859707945e-01 5.0610154906473193e-01  4.9780705710286144e-01 1.6335413760046524e-01 4.9008279565668633e-01  4.9392152962768809e-01 1.6662493801134171e-01 4.6860820573320472e-01  4.8715799324114434e-01 1.8667081262675447e-01 4.2233473452899845e-01  4.8521404191174378e-01 2.0560222550448629e-01 4.0138720444642317e-01  4.8462249593007639e-01 2.2386188338916432e-01 3.8789584388945653e-01  4.8466365470986322e-01 2.2935255081865732e-01 3.8500629928482594e-01  4.8500855376902879e-01 2.4322124133512549e-01 3.7896645850383326e-01  4.8538856120190293e-01 2.5221692394306106e-01 3.7585695049313106e-01  4.8543790311566443e-01 2.5309808315005572e-01 3.7561806779842510e-01  4.8542223229912634e-01 2.5282680596483786e-01 3.7568889319139886e-01  4.8543245996991174e-01 2.5303169214980736e-01 3.7562610762283855e-01  4.8563421261431439e-01 2.5641924138489181e-01 3.7477264865255439e-01  4.8583162951743225e-01 2.5946441557019823e-01 3.7409449836459668e-01  4.8580250013718551e-01 2.5905249333145991e-01 3.7417170003436140e-01  4.8583789702660896e-01 2.5955361702889390e-01 3.7407749185451139e-01  4.8583925303678877e-01 2.5957004788766125e-01 3.7407564590310849e-01  4.8584458364141314e-01 2.5964366481104306e-01 3.7406260262052626e-01  4.8584457189734970e-01 2.5964347958630624e-01 3.7406264616459600e-01  4.8584232622790896e-01 2.5960923614267833e-01 3.7407021691367626e-01  4.8584945082451630e-01 2.5969222614690513e-01 3.7406267259372233e-01  4.8585442107569127e-01 2.5972748150670100e-01 3.7407196310437368e-01  4.8585781515840498e-01 2.5975157392321602e-01 3.7407829522176167e-01  4.8585846252852882e-01 2.5975455380591495e-01 3.7408054215329978e-01  4.8585844856548710e-01 2.5975375028356412e-01 3.7408096934667956e-01  4.8585447125988501e-01 2.5972000745746471e-01 3.7407709388539651e-01  4.8584713437737498e-01 2.5964337929544640e-01 3.7407918593443518e-01  4.8578333652008626e-01 2.5880224323012080e-01 3.7420907204906706e-01  4.8574469872956089e-01 2.5822076146467093e-01 3.7433315972506453e-01  4.8572202984954671e-01 2.5787804157594324e-01 3.7440682402125031e-01  4.8561475752609695e-01 2.5614596252335631e-01 3.7482214876986286e-01  4.8561601143326977e-01 2.5616170814137790e-01 3.7482002083901866e-01  4.8568490974807682e-01 2.5728405129448378e-01 3.7454751110802065e-01  4.8566110522258515e-01 2.5689472167158217e-01 3.7464270362315416e-01  4.8553765985038699e-01 2.5478685237743554e-01 3.7518779583100442e-01  4.8529806697507116e-01 2.5020684925716319e-01 3.7652526844482659e-01  4.8495763044626466e-01 2.4265258415938015e-01 3.7900868572632535e-01  4.8489111732372014e-01 2.4059357547178459e-01 3.7982628044504652e-01  4.8467921839113831e-01 2.3310800642495419e-01 3.8294224314105024e-01  4.8454367380405239e-01 2.2653288033968819e-01 3.8593064861558418e-01  4.8452366772363842e-01 2.2098198202360828e-01 3.8895703584720021e-01  4.8458551345977202e-01 2.1437973772007737e-01 3.9300474695104853e-01  4.8471539499800315e-01 2.0967597461514104e-01 3.9634546651708591e-01  4.8483130526216761e-01 2.0663247729196155e-01 3.9867479521166072e-01  4.8498186308835484e-01 2.0396285858081764e-01 4.0098302996507029e-01  4.8532783708415128e-01 1.9951984864799596e-01 4.0533888660952450e-01  4.8657450944248720e-01 1.9091543339322656e-01 4.1685359267271355e-01  4.9016321085602910e-01 1.7494712816217403e-01 4.4467452688351305e-01  4.9088862135417682e-01 1.7259499254935673e-01 4.4975442555498601e-01  4.9450983046588137e-01 1.6685717103097886e-01 4.7156897702291978e-01  5.0243954771194765e-01 1.6287996955762263e-01 5.1326400138054584e-01  5.0374111404725885e-01 1.6290112728379955e-01 5.1956556039421720e-01  5.0469433219757398e-01 1.6335574181211179e-01 5.2391905894374080e-01  5.0793242378060810e-01 1.6516582681200395e-01 5.3833238284052276e-01  5.1212079493114149e-01 1.6809011305487087e-01 5.5624932684060224e-01  5.2161779878213088e-01 1.7918840024795199e-01 5.9228601272166315e-01  5.2648110029510331e-01 1.8649505194614516e-01 6.0872657830837429e-01  5.2783186738917809e-01 1.8867405823646427e-01 6.1307617652845670e-01  5.2863955689082853e-01 1.9007363362037369e-01 6.1558527210157132e-01  5.3010582463284306e-01 1.9272435889716105e-01 6.2003988765762119e-01  5.2975385464689573e-01 1.9204433314203317e-01 6.1899845872641646e-01  5.3218559695650491e-01 1.9673888545360660e-01 6.2611943478024323e-01  5.3603907830556041e-01 2.0493737409178467e-01 6.3660938534256517e-01  5.3649155888492206e-01 2.0592667042089449e-01 6.3778911189393162e-01  5.3325635392325255e-01 1.9899956732866159e-01 6.2909673580401793e-01  5.3794821189188924e-01 2.0935565702361125e-01 6.4143810168542670e-01  5.3934733156013581e-01 2.1269502017102743e-01 6.4483819416019550e-01  5.3982830273743676e-01 2.1385956224366798e-01 6.4598331403464371e-01  5.4037325347898346e-01 2.1520007744828326e-01 6.4725578841200093e-01  5.4044187098926988e-01 2.1537010449357111e-01 6.4741474734148285e-01  5.4047978057442736e-01 2.1546479327786644e-01 6.4750216143393935e-01  5.4046768997069272e-01 2.1543462060620192e-01 6.4747427826631432e-01  5.4045395470641211e-01 2.1540030123314288e-01 6.4744261309740692e-01  5.4041111654559926e-01 2.1529338368024570e-01 6.4734372877311930e-01  5.4035601276579659e-01 2.1515598289088808e-01 6.4721635684491285e-01  5.4028470255278338e-01 2.1497825633190459e-01 6.4705129338478984e-01  5.4020093642261535e-01 2.1476963019385922e-01 6.4685704447160264e-01  5.4010673998360437e-01 2.1453524041944699e-01 6.4663814635512218e-01  5.4000491400090567e-01 2.1428211681214543e-01 6.4640095419984200e-01  5.3989529224071053e-01 2.1401002931060892e-01 6.4614491379180505e-01  5.3978007368508252e-01 2.1372450478413971e-01 6.4587504367536808e-01  5.3966103288826406e-01 2.1343002982911358e-01 6.4559537702991832e-01  5.3953622818430136e-01 2.1312204752525873e-01 6.4530119317261492e-01  5.3928146965101409e-01 2.1249563729238719e-01 6.4469769487668238e-01  5.3916048203011080e-01 2.1219928054154819e-01 6.4440964873767848e-01  5.3903794849679920e-01 2.1190011020270202e-01 6.4411689034005370e-01  5.3891376815928116e-01 2.1159792911516276e-01 6.4381914885178193e-01  5.3878871559210229e-01 2.1129466728637866e-01 6.4351823943147213e-01  5.3866373067558959e-01 2.1099261247617646e-01 6.4321643198273604e-01  5.3853846177415354e-01 2.1069103440078166e-01 6.4291284195787501e-01  5.3841509717726166e-01 2.1039519175126362e-01 6.4261280980050206e-01  5.3829701470535973e-01 2.1011313543950749e-01 6.4232462815593871e-01  5.3818864452310045e-01 2.0985533523751398e-01 6.4205927863637979e-01  5.3809914680651449e-01 2.0964332785174511e-01 6.4183945254787633e-01  5.3799267790899497e-01 2.0939374822166285e-01 6.4157626844865656e-01  5.3786732213805510e-01 2.0910230236879473e-01 6.4126458875017733e-01  5.3767604449534689e-01 2.0865902782086077e-01 6.4078712071415334e-01  5.3699254016601417e-01 2.0708507065584497e-01 6.3906563649604098e-01  5.3663837722027219e-01 2.0627652768155844e-01 6.3816351948154237e-01  5.3628503548503115e-01 2.0547590382466469e-01 6.3725555451717253e-01  5.3592630431170274e-01 2.0466956389948554e-01 6.3632556926443229e-01  5.3556120848629396e-01 2.0385580424114116e-01 6.3537063490168666e-01  5.3519038349048464e-01 2.0303647072404421e-01 6.3439203138534672e-01  5.3481537519541256e-01 2.0221534413783160e-01 6.3339350503651504e-01  5.3443799818979787e-01 2.0139659901063175e-01 6.3237977766535036e-01  5.3406139031738042e-01 2.0058731490049020e-01 6.3135908448526756e-01  5.3368687355634903e-01 1.9979056510009358e-01 6.3033509838354307e-01  5.3332175339995580e-01 1.9902148208742892e-01 6.2932834411469207e-01  5.3297420281740404e-01 1.9829698519560937e-01 6.2836207728968296e-01  5.3238245823203212e-01 1.9708516213030647e-01 6.2669621011825849e-01  5.3202207065317864e-01 1.9636006472315765e-01 6.2566915353639252e-01  5.3162596199406575e-01 1.9557141917352169e-01 6.2453104792489245e-01  5.3120718311385862e-01 1.9474676539602270e-01 6.2331746035318258e-01  5.3077376411824229e-01 1.9390253237099830e-01 6.2205030268675576e-01  5.3033241797894981e-01 1.9305164100707625e-01 6.2074862470307246e-01  5.2988307686132441e-01 1.9219354046217621e-01 6.1941200034505794e-01  5.2903452648206328e-01 1.9058114571886656e-01 6.1686317711216510e-01  5.2877754265275734e-01 1.9009109235522118e-01 6.1608563394111326e-01  5.2861050582065683e-01 1.8976810412067888e-01 6.1557956702212890e-01  5.2850301075783102e-01 1.8955623477143957e-01 6.1525403806279655e-01  5.2844547507503525e-01 1.8943732464055976e-01 6.1508090001553484e-01  5.2842336094299813e-01 1.8938548150216108e-01 6.1501584280638633e-01  5.2842259782907508e-01 1.8937605643203617e-01 6.1501554650214907e-01  5.2841077978158546e-01 1.8935605351491760e-01 6.1497871047868491e-01  5.2834653571183521e-01 1.8925496538767303e-01 6.1477638940182788e-01  5.2821496667290202e-01 1.8904573457902529e-01 6.1436180631204418e-01  5.2800294535898429e-01 1.8870833028390338e-01 6.1369165619783395e-01  5.2769138989139919e-01 1.8821444014048100e-01 6.1270164309928665e-01  5.2726273967011572e-01 1.8754076925801277e-01 6.1132891767961139e-01  5.2669421581017595e-01 1.8665975934031798e-01 6.0948830468006554e-01  5.2594387676578280e-01 1.8551836665866886e-01 6.0702446630747409e-01  5.2490255611556114e-01 1.8397006649354236e-01 6.0354411983192280e-01  5.2101856680641456e-01 1.7845366030574936e-01 5.9012980320472441e-01  5.1953371089110401e-01 1.7646580910381879e-01 5.8482054829789643e-01  5.1826429430204912e-01 1.7484614900245876e-01 5.8017679458776206e-01  5.1719342085995701e-01 1.7354692066409891e-01 5.7618125571775303e-01  5.1634321010017792e-01 1.7256574001619157e-01 5.7295660031230367e-01  5.1553388108161191e-01 1.7172063403398208e-01 5.6980762261660223e-01  5.1488037091134031e-01 1.7110706778926441e-01 5.6720134558071722e-01  5.1390539736561902e-01 1.7023600921234192e-01 5.6326140660687396e-01  5.1024491540359651e-01 1.6727151713513322e-01 5.4809292261759368e-01  5.0866247304347234e-01 1.6616760993115551e-01 5.4132581512712985e-01  5.0725855825980448e-01 1.6531196855354049e-01 5.3518309336975167e-01  5.0595635970477859e-01 1.6463698055558026e-01 5.2935961430529876e-01  5.0472309277602312e-01 1.6411383650855049e-01 5.2372710990584015e-01  5.0353189721311908e-01 1.6372018084090909e-01 5.1817748815245579e-01  5.0234321962563688e-01 1.6343790458923527e-01 5.1253340967196703e-01  4.9984584203524368e-01 1.6316858885652522e-01 5.0036881534152944e-01  4.9905769792362226e-01 1.6317740286859439e-01 4.9644270668498858e-01  4.9846913925566533e-01 1.6322824303036002e-01 4.9347327013125136e-01  4.9804322734605799e-01 1.6329685559059734e-01 4.9130034886403556e-01  4.9760788336058309e-01 1.6343586014393088e-01 4.8903647209535839e-01  4.9728903014612236e-01 1.6359490749836625e-01 4.8734474820563389e-01  4.9690776825521882e-01 1.6381599925969853e-01 4.8530267744690198e-01  4.9648647398495699e-01 1.6409463113367018e-01 4.8302408486021214e-01  4.9604685188052755e-01 1.6442427987039201e-01 4.8062121558504062e-01  4.9559782629432719e-01 1.6480195242691573e-01 4.7813998023838128e-01  4.9514842298276029e-01 1.6522309438344995e-01 4.7562823816952005e-01  4.9470858828086234e-01 1.6568048228329499e-01 4.7314063974617665e-01  4.9428993996993098e-01 1.6616068733848824e-01 4.7074391077859817e-01  4.9351889384743058e-01 1.6719047216316260e-01 4.6623770016736671e-01  4.9306941891899869e-01 1.6788608345603437e-01 4.6355089576634667e-01  4.9260478413086123e-01 1.6867444863267675e-01 4.6072994293155306e-01  4.9213257392053411e-01 1.6955364369591644e-01 4.5781386259641282e-01  4.9165934092815500e-01 1.7051767998623354e-01 4.5483950269542756e-01  4.9118990654801037e-01 1.7156491712142743e-01 4.5183244031870279e-01  4.9072681257906242e-01 1.7269627945962501e-01 4.4880525433727492e-01  4.9027288475045044e-01 1.7391085419694416e-01 4.4577329106126029e-01  4.8983085220172418e-01 1.7520617637214730e-01 4.4275245178982886e-01  4.8940177394910350e-01 1.7658514327679500e-01 4.3974689759681379e-01  4.8898706572112866e-01 1.7804691825841584e-01 4.3676494257869886e-01  4.8858830255060032e-01 1.7958947372914666e-01 4.3381645287264964e-01  4.8820514733716402e-01 1.8122050804213441e-01 4.3089569609199152e-01  4.8784063311338710e-01 1.8293592399762351e-01 4.2802125260991103e-01  4.8749209156229539e-01 1.8474830796593542e-01 4.2517260304097998e-01  4.8686220327938989e-01 1.8855934432852117e-01 4.1971476744348946e-01  4.8658783011573375e-01 1.9050545730955074e-01 4.1717289866508589e-01  4.8633125976015135e-01 1.9252810168522602e-01 4.1467979774326336e-01  4.8609177478643051e-01 1.9465508166007164e-01 4.1221617114831494e-01  4.8586756084694410e-01 1.9689906018466030e-01 4.0976535663213343e-01  4.8565495212565424e-01 1.9931965610721050e-01 4.0727432098546673e-01  4.8544639921553046e-01 2.0205771376413953e-01 4.0462321006492480e-01  4.8501805912849677e-01 2.0915487117705100e-01 3.9833663740586700e-01  4.8489440368416387e-01 2.1182957071934533e-01 3.9616468144911587e-01  4.8480553087551082e-01 2.1415275489182051e-01 3.9437536780736820e-01  4.8474022572334002e-01 2.1625293976568372e-01 3.9283706640198585e-01  4.8469272460668339e-01 2.1817739315947760e-01 3.9149280586968527e-01  4.8465965632708563e-01 2.1993599491430735e-01 3.9031936535278527e-01  4.8463837630776274e-01 2.2151876796642439e-01 3.8930851073531397e-01  4.8462662735433837e-01 2.2288302965840159e-01 3.8847252222947393e-01  4.8462360148872896e-01 2.2466751869918120e-01 3.8744563678454846e-01  4.8462919478205646e-01 2.2587466107068110e-01 3.8679216391239113e-01  4.8464118005945284e-01 2.2736729606116574e-01 3.8601102170832641e-01  4.8469563897340384e-01 2.3153095944910093e-01 3.8394195518061330e-01  4.8472828045243876e-01 2.3334220968225367e-01 3.8308845098014821e-01  4.8476370795610457e-01 2.3501133915203851e-01 3.8232981859914295e-01  4.8480234205844663e-01 2.3660703460485993e-01 3.8162947376911049e-01  4.8484449010506797e-01 2.3816212290145572e-01 3.8097050167461233e-01  4.8489054301237239e-01 2.3970824250931766e-01 3.8033693683783548e-01  4.8494198238249392e-01 2.4130067883633924e-01 3.7970517248776453e-01  4.8507529416511974e-01 2.4502969812711575e-01 3.7829158018655806e-01  4.8512484320413590e-01 2.4630505984719547e-01 3.7782824012149102e-01  4.8516715574685243e-01 2.4734819571503311e-01 3.7745843645872484e-01  4.8520446510163306e-01 2.4823440058576959e-01 3.7715132746190394e-01  4.8523767873296408e-01 2.4899846561395397e-01 3.7689199781903471e-01  4.8526725502324664e-01 2.4966045779403923e-01 3.7667149103806341e-01  4.8529340005016275e-01 2.5023202714805470e-01 3.7648428722809341e-01  4.8531621864601232e-01 2.5072099023315320e-01 3.7632650323686984e-01  4.8533583737452318e-01 2.5113446572230935e-01 3.7619476405256652e-01  4.8535227798951897e-01 2.5147626295183867e-01 3.7608702332961619e-01  4.8536562203837869e-01 2.5175069202174077e-01 3.7600126585796068e-01  4.8537585671559913e-01 2.5195945162645339e-01 3.7593646311409989e-01  4.8538302581942355e-01 2.5210486309203778e-01 3.7589153075736326e-01  4.8538724367851277e-01 2.5219011942165159e-01 3.7586526045565066e-01  4.8538914778024178e-01 2.5222705651503941e-01 3.7585431649513457e-01  4.8539137669227117e-01 2.5226691314300792e-01 3.7584350551552309e-01  4.8539542843346511e-01 2.5233983028706269e-01 3.7582357431305813e-01  4.8540136148520197e-01 2.5244681626832327e-01 3.7579425587872861e-01  4.8540968226511916e-01 2.5259743909321980e-01 3.7575277854649292e-01  4.8543008834058504e-01 2.5296776768830515e-01 3.7565044445753848e-01  4.8542879339932399e-01 2.5295194250216596e-01 3.7565237494206877e-01  4.8542999161068406e-01 2.5297940878382491e-01 3.7564295615169102e-01  4.8543122485192092e-01 2.5300574354806110e-01 3.7563441205581882e-01  4.8543206047009824e-01 2.5302331398018518e-01 3.7562878494882801e-01  4.8543197977283292e-01 2.5302162162305869e-01 3.7562932575141939e-01  4.8543082390660092e-01 2.5299740773945784e-01 3.7563705537686459e-01  4.8542863746951165e-01 2.5295225411806677e-01 3.7565128650977780e-01  4.8545460064161455e-01 2.5338805771587902e-01 3.7554199302221247e-01  4.8547072163770350e-01 2.5366863838607800e-01 3.7546812199336105e-01  4.8548741974226006e-01 2.5395808918432622e-01 3.7539224606094668e-01  4.8550482005712858e-01 2.5425780595212816e-01 3.7531425254849421e-01  4.8552296611631979e-01 2.5456802856486144e-01 3.7523424497461588e-01  4.8554185657215582e-01 2.5488837200983494e-01 3.7515244094418254e-01  4.8556162198169922e-01 2.5522071548172903e-01 3.7506846911933178e-01  4.8558259642717155e-01 2.5557037029631002e-01 3.7498108472563374e-01  4.8560559874415316e-01 2.5595049571874556e-01 3.7488715442168175e-01  4.8566233999144764e-01 2.5687602535664400e-01 3.7466236810311260e-01  4.8568354535399638e-01 2.5721724038581184e-01 3.7458104477699511e-01  4.8570184732265886e-01 2.5750907736757639e-01 3.7451240546702091e-01  4.8571803275918080e-01 2.5776479583269268e-01 3.7445309729582676e-01  4.8573257890465332e-01 2.5799256103467960e-01 3.7440101261205772e-01  4.8574566913976935e-01 2.5819570246739160e-01 3.7435523085768208e-01  4.8575745025095740e-01 2.5837692432531784e-01 3.7431499017015846e-01  4.8576801666876107e-01 2.5853805603237973e-01 3.7427974665023539e-01  4.8577743254829442e-01 2.5868042097185062e-01 3.7424908209142732e-01  4.8578570347445149e-01 2.5880441757612793e-01 3.7422279126329744e-01  4.8579281553897924e-01 2.5891015076902357e-01 3.7420073013394717e-01  4.8579865110052523e-01 2.5899619088746118e-01 3.7418307021131730e-01  4.8580620108909583e-01 2.5910592660459447e-01 3.7416120643305667e-01  4.8581108078846102e-01 2.5917572144669776e-01 3.7414778107006197e-01  4.8581658555163248e-01 2.5925373450099365e-01 3.7413308721207100e-01  4.8582286978153799e-01 2.5934203489934637e-01 3.7411678632979223e-01  4.8583595955721770e-01 2.5952562406221513e-01 3.7408301796399490e-01  4.8583727523067766e-01 2.5954450410699337e-01 3.7407934825395800e-01  4.8583774948678993e-01 2.5955143526828089e-01 3.7407794482671486e-01  4.8583775902405885e-01 2.5955157500661979e-01 3.7407791637464455e-01  4.8583748836042689e-01 2.5954750562679829e-01 3.7407879015403150e-01  4.8583735489495949e-01 2.5954515284500035e-01 3.7407944251991887e-01  4.8583786434287646e-01 2.5955156691701209e-01 3.7407859488562678e-01  4.8584110574971623e-01 2.5959512205277840e-01 3.7407144277597137e-01  4.8584258543963416e-01 2.5961545273243258e-01 3.7406788918603479e-01  4.8584366965652648e-01 2.5963064921600709e-01 3.7406509242233937e-01  4.8584434409095267e-01 2.5964023879030568e-01 3.7406326466651652e-01  4.8584456371083345e-01 2.5964337041017199e-01 3.7406266371107671e-01  4.8584440162781167e-01 2.5964100863555661e-01 3.7406313971913108e-01  4.8584394043967460e-01 2.5963427953857970e-01 3.7406449982168283e-01  4.8584323731591122e-01 2.5962374973111507e-01 3.7406674708338944e-01  4.8584402814849309e-01 2.5962859222623236e-01 3.7406871670122932e-01  4.8584562878745730e-01 2.5964762804795155e-01 3.7406677094443153e-01  4.8584703137582547e-01 2.5966428501734362e-01 3.7406508054098864e-01  4.8584817928902835e-01 2.5967773619317386e-01 3.7406381324961141e-01  4.8584902191821505e-01 2.5968743075846457e-01 3.7406299806815679e-01  4.8584974100084727e-01 2.5969503767630436e-01 3.7406273063775747e-01  4.8585015583192753e-01 2.5969865699844485e-01 3.7406307080857115e-01  4.8585062798