<?xml version="1.0"?>
<VTKFile type="UnstructuredGrid"  version="0.1"  >
<UnstructuredGrid>
<Piece  NumberOfPoints="7288" NumberOfCells="14083">
<Points>
<DataArray  type="Float64"  NumberOfComponents="3"  format="ascii">239.8 188 0  250.2 180 0  258.2 172.4 0  257 169.4 0  259.9 157.4 0  258.7 150.3 0  261 143.5 0  251.7 144.4 0  250 138.7 0  247 138.1 0  245.2 130.8 0  247.3 126.4 0  242.7 118.6 0  231.2 107.7 0  226 102.4 0  226.5 93.90000000000001 0  224.5 91.19999999999999 0  224.5 84.09999999999999 0  234.5 73.80000000000001 0  228.4 68.90000000000001 0  230 70 0  233.4 68 0  222.7 61.5 0  220.6 45.5 0  223.4 49.40000000000001 0  224 47 0  221.8 43.09999999999999 0  221 38.40000000000001 0  219.5 38.5 0  219.4 41.69999999999999 0  217.1 36.90000000000001 0  209.7 36 0  209.5 31.69999999999999 0  205.1 29.90000000000001 0  201.5 30.40000000000001 0  199.2 38.69999999999999 0  201.8 41.40000000000001 0  194.8 53.80000000000001 0  196.1 57.69999999999999 0  193 59 0  191.4 66.09999999999999 0  193.5 66.5 0  194.1 64.40000000000001 0  195.6 64.69999999999999 0  195.4 72.40000000000001 0  199.5 77.30000000000001 0  197.7 86.90000000000001 0  200.6 87.5 0  201.5 91 0  198 94.80000000000001 0  198.6 100 0  197.3 105.4 0  198 109.5 0  197 112.7 0  198.3 116.1 0  201.3 122 0  207.2 121 0  208.1 126.7 0  205.6 127.9 0  209.1 134.9 0  210.9 144.4 0  210.1 147.9 0  213 148.4 0  215.4 149.3 0  215.1 152.8 0  219.9 159.7 0  220.3 163.2 0  218.7 164.9 0  219.9 166.7 0  221.9 169.7 0  220 170.3 0  224.9 174.7 0  229.8 177.4 0  229.7 181 0  228 172.9 0  239 178 0  240.4 180 0  239 181.5 0  241.2 185.9 0  242.95 187.99 0  240.5875 187.9975 0  241.375 187.995 0  242.1625 187.9925 0  243.6090909090879 187.2636363636397 0  244.2681818181765 186.5372727272785 0  244.9272727272692 185.810909090913 0  245.5863636363531 185.0845454545571 0  246.245454545445 184.3581818181923 0  246.9045454545351 183.6318181818295 0  247.5636363636303 182.9054545454612 0  248.2227272727197 182.1790909090992 0  248.8818181818179 181.4527272727275 0  249.5409090909066 180.7263636363664 0  250.8666666666961 179.3666666666387 0  251.5333333334033 178.7333333332668 0  252.2000000000994 178.0999999999055 0  252.8666666668011 177.466666666539 0  253.5333333335083 176.8333333331671 0  254.2000000002044 176.1999999998058 0  254.8666666669005 175.5666666664445 0  255.5333333336077 174.9333333330727 0  256.2000000002685 174.2999999997449 0  256.8666666668457 173.6666666664966 0  257.5333333334283 173.033333333243 0  257.9000000000077 171.6500000000191 0  257.6000000000015 170.9000000000038 0  257.2999999999954 170.1499999999885 0  257.2230769230778 168.4769230769195 0  257.4461538461543 167.5538461538442 0  257.6692307692309 166.6307692307688 0  257.8923076923074 165.7076923076935 0  258.115384615384 164.7846153846181 0  258.3384615384605 163.8615384615427 0  258.5615384615395 162.9384615384572 0  258.784615384616 162.0153846153819 0  259.0076923076926 161.0923076923065 0  259.2307692307691 160.1692307692311 0  259.4538461538457 159.2461538461558 0  259.6769230769222 158.3230769230804 0  259.750000000001 156.512500000006 0  259.6000000000014 155.6250000000082 0  259.4500000000029 154.7375000000176 0  259.3000000000018 153.8500000000108 0  259.1500000000007 152.962500000004 0  259.0000000000004 152.0750000000026 0  258.849999999999 151.187499999994 0  258.9875000000052 149.4499999999846 0  259.275000000002 148.5999999999941 0  259.5624999999954 147.7500000000135 0  259.849999999995 146.900000000015 0  260.1374999999945 146.0500000000164 0  260.4249999999913 145.2000000000259 0  260.7124999999948 144.3500000000154 0  260.0700000000398 143.5899999999961 0  259.1400000000573 143.6799999999944 0  258.2100000000351 143.7699999999966 0  257.2800000000262 143.8599999999975 0  256.350000000011 143.9499999999989 0  255.4199999999881 144.0400000000011 0  254.4899999999726 144.1300000000026 0  253.5599999999944 144.2200000000005 0  252.6300000000009 144.3099999999999 0  251.4166666666658 143.4499999999971 0  251.1333333333388 142.5000000000182 0  250.8500000000015 141.5500000000051 0  250.5666666666612 140.5999999999818 0  250.2833333333342 139.6500000000029 0  249.2500000000005 138.5500000000001 0  248.5000000000011 138.4000000000002 0  247.7499999999995 138.2499999999999 0  246.7750000000005 137.1875000000023 0  246.5500000000021 136.2750000000085 0  246.3250000000036 135.3625000000147 0  246.1000000000042 134.450000000017 0  245.8750000000022 133.5375000000088 0  245.650000000003 132.6250000000124 0  245.4250000000046 131.7125000000187 0  245.619999999996 129.9200000000084 0  246.0399999999992 129.0400000000017 0  246.4599999999987 128.1600000000028 0  246.8800000000001 127.2799999999997 0  246.8399999999988 125.6199999999979 0  246.3799999999984 124.8399999999973 0  245.9199999999991 124.0599999999985 0  245.4600000000036 123.2800000000062 0  245.0000000000049 122.5000000000082 0  244.5400000000036 121.7200000000062 0  244.0800000000033 120.9400000000056 0  243.6200000000016 120.1600000000027 0  243.1600000000012 119.3800000000021 0  241.9812499999996 117.9187499999997 0  241.2625000000007 117.2375000000007 0  240.5437500000017 116.5562500000017 0  239.8250000000041 115.875000000004 0  239.1062500000066 115.1937500000063 0  238.3875000000076 114.5125000000072 0  237.6687500000087 113.8312500000082 0  236.9500000000083 113.1500000000079 0  236.231250000008 112.4687500000076 0  235.512500000009 111.7875000000085 0  234.7937500000045 111.1062500000043 0  234.0750000000042 110.4250000000039 0  233.3562500000066 109.7437500000062 0  232.6375000000021 109.062500000002 0  231.9187500000031 108.381250000003 0  230.5500000000004 107.0375000000004 0  229.9000000000021 106.3750000000021 0  229.2500000000038 105.7125000000039 0  228.6000000000041 105.0500000000042 0  227.9500000000018 104.3875000000018 0  227.2999999999952 103.7249999999951 0  226.6500000000024 103.0625000000024 0  226.0555555555555 101.4555555555556 0  226.1111111111111 100.5111111111111 0  226.1666666666667 99.56666666666668 0  226.2222222222222 98.62222222222223 0  226.2777777777778 97.67777777777778 0  226.3333333333333 96.73333333333335 0  226.3888888888889 95.78888888888889 0  226.4444444444445 94.84444444444446 0  226 93.22499999999999 0  225.5000000000026 92.55000000000358 0  225.0000000000026 91.87500000000358 0  224.5 90.31250000000068 0  224.5 89.4250000000097 0  224.5 88.53750000001317 0  224.5 87.65000000001388 0  224.5 86.76250000001457 0  224.5 85.87500000001248 0  224.5 84.9874999999993 0  225.1666666666659 83.41333333333409 0  225.8333333333319 82.72666666666818 0  226.4999999999978 82.04000000000228 0  227.1666666666649 81.35333333333514 0  227.8333333333301 80.66666666667 0  228.4999999999942 79.980000000006 0  229.1666666666601 79.2933333333401 0  229.8333333333316 78.60666666666847 0  230.4999999999975 77.92000000000257 0  231.1666666666644 77.23333333333572 0  231.8333333333295 76.54666666667057 0  232.4999999999972 75.86000000000287 0  233.1666666666681 75.17333333333181 0  233.8333333333368 74.48666666666306 0  233.7499999999995 73.16666666666629 0  233.0000000000018 72.53333333333488 0  232.2500000000014 71.90000000000116 0  231.5000000000009 71.26666666666743 0  230.7500000000005 70.63333333333372 0  229.233333333333 68.75000000000006 0  230.0666666666665 68.60000000000004 0  230.8999999999995 68.45000000000009 0  231.7333333333325 68.30000000000015 0  232.566666666667 68.14999999999995 0  232.5499999999897 68.50000000000607 0  231.7 69 0  230.8500000000103 69.49999999999393 0  227.8300000000008 68.16000000000106 0  227.2600000000064 67.42000000000837 0  226.6900000000077 66.68000000001001 0  226.1200000000024 65.94000000000314 0  225.5500000000108 65.20000000001409 0  224.9800000000098 64.46000000001268 0  224.4100000000007 63.72000000000098 0  223.8399999999971 62.97999999999621 0  223.2699999999993 62.23999999999915 0  222.753846153846 60.56923076923239 0  222.8076923076921 59.63846153846478 0  222.8615384615381 58.70769230769827 0  222.9153846153842 57.77692307693071 0  222.9692307692302 56.84615384616315 0  223.0230769230761 55.91538461539836 0  223.0769230769224 54.98461538462665 0  223.1307692307688 54.05384615385345 0  223.184615384615 53.12307692308312 0  223.2384615384611 52.19230769231556 0  223.2923076923071 51.26153846154906 0  223.3461538461533 50.33076923077847 0  222.8400000000024 48.62000000000327 0  222.2800000000047 47.84000000000661 0  221.7200000000005 47.06000000000071 0  221.1600000000003 46.28000000000039 0  221.4500000000116 45.87500000000512 0  222.3 46.25 0  223.1499999999884 46.62499999999488 0  223.5600000000055 46.22000000000981 0  223.1199999999987 45.43999999999767 0  222.6800000000061 44.66000000001075 0  222.2399999999969 43.8799999999944 0  221.6400000000004 42.16000000000253 0  221.4800000000009 41.22000000000548 0  221.3200000000014 40.28000000000801 0  221.1600000000009 39.34000000000556 0  220.25 38.45 0  219.4749999999999 39.30000000000165 0  219.45 40.09999999999999 0  219.425 40.90000000000112 0  219.0166666666641 40.89999999999463 0  218.6333333333375 40.10000000000875 0  218.2500000000016 39.30000000000339 0  217.8666666666635 38.49999999999351 0  217.483333333337 37.70000000000762 0  216.1750000000165 36.78750000000201 0  215.2500000000275 36.67500000000335 0  214.3250000000385 36.56250000000469 0  213.4000000000277 36.45000000000337 0  212.4750000000059 36.33750000000072 0  211.5499999999838 36.22499999999803 0  210.6249999999835 36.11249999999799 0  209.6600000000001 35.14000000000318 0  209.6200000000001 34.28000000000268 0  209.5800000000001 33.42000000000284 0  209.5399999999998 32.55999999999681 0  208.6200000000117 31.34000000000476 0  207.7400000000138 30.98000000000564 0  206.8600000000162 30.62000000000662 0  205.9800000000174 30.26000000000711 0  204.2000000000054 30.02499999999925 0  203.2999999999946 30.15000000000076 0  202.3999999999945 30.27500000000076 0  201.2444444444438 31.32222222222468 0  200.9888888888895 32.24444444
[...]
<PointData  Vectors="f_12"> 
<DataArray  type="Float64"  Name="f_12"  NumberOfComponents="3" format="ascii">5.7700985745547351e-01 4.6563527389802867e-01 5.9843062746309528e-01  5.7700973267611644e-01 4.6563330206482589e-01 5.9843167069799197e-01  5.7700934977767104e-01 4.6562608734881006e-01 5.9843576465375314e-01  5.7700893723030267e-01 4.6561655597698826e-01 5.9844151097232900e-01  5.7700335212708775e-01 4.6542165013891912e-01 5.9856882504582376e-01  5.7699588638972188e-01 4.6495316107704487e-01 5.9889505881252869e-01  5.7699380092252839e-01 4.6485401791371078e-01 5.9896230788216509e-01  5.7696167849505786e-01 4.6130718012243055e-01 6.0153593105539227e-01  5.7682552132075260e-01 4.5292211531351223e-01 6.0748982637987436e-01  5.7655763051349773e-01 4.4459891101525706e-01 6.1307489399488158e-01  5.7332829363869986e-01 3.9305331308261243e-01 6.4241892762949115e-01  5.7069186496012636e-01 3.6615319256921208e-01 6.5408787796812717e-01  5.6129848023916662e-01 3.0934475545004581e-01 6.6504941785671079e-01  5.2956719860400936e-01 2.0310010132281478e-01 6.1508022384770600e-01  5.1920923956002807e-01 1.8541798733436574e-01 5.8078189166945560e-01  5.1523330385816690e-01 1.8117101178582240e-01 5.6544944897324945e-01  5.1430478514966693e-01 1.8045640737009039e-01 5.6168455111780757e-01  5.1130054301079908e-01 1.7770689909699700e-01 5.4943026802416939e-01  5.0896094115804347e-01 1.7485238991802576e-01 5.3987099206237421e-01  5.0896930544564400e-01 1.7492877100546467e-01 5.3987166402526943e-01  5.0895773911713404e-01 1.7490024008047583e-01 5.3983174010518198e-01  5.0891822699933165e-01 1.7482774454622343e-01 5.3967604253140056e-01  5.0934032661028705e-01 1.7406266323370864e-01 5.4188482532263205e-01  5.1400544446605012e-01 1.7540789260363732e-01 5.6214900497125453e-01  5.1230878090286502e-01 1.7411951953086335e-01 5.5519346382450596e-01  5.1437474736033384e-01 1.7563425281988695e-01 5.6367199082206654e-01  5.1455220835072668e-01 1.7585428524021493e-01 5.6435780110164735e-01  5.1495193249368387e-01 1.7617353366383640e-01 5.6596331876224448e-01  5.1495183089835861e-01 1.7617426988499096e-01 5.6596262594126567e-01  5.1489243796129802e-01 1.7624196333525968e-01 5.6568296212611646e-01  5.1601114358873790e-01 1.7765571808871727e-01 5.6995908729542433e-01  5.1776334336848373e-01 1.8021369205003560e-01 5.7641647090175374e-01  5.1906409787153296e-01 1.8202485250952818e-01 5.8116711551707401e-01  5.1938574442476504e-01 1.8249458108341265e-01 5.8232067497286588e-01  5.1940661108618225e-01 1.8253717489322041e-01 5.8239082098136030e-01  5.1802897231798606e-01 1.8075940371291443e-01 5.7733426486103900e-01  5.1619210185159814e-01 1.7861907704465826e-01 5.7035787418946460e-01  5.0791814779462863e-01 1.7223268130104802e-01 5.3602375179634887e-01  5.0614840375441617e-01 1.7217548399468174e-01 5.2776405946758187e-01  5.0507573360616076e-01 1.7224101052551535e-01 5.2266413495969399e-01  5.0399318021994910e-01 1.7439245369777737e-01 5.1660103861097872e-01  5.0411942333475956e-01 1.7434705542135520e-01 5.1722996797392329e-01  5.0460684543824341e-01 1.7290065403691243e-01 5.2016038851071611e-01  5.0453346667742305e-01 1.7338803751847420e-01 5.1961228533098069e-01  5.0514725803680161e-01 1.7577831393854887e-01 5.2159112709973066e-01  5.0907485678790299e-01 1.7959465706201713e-01 5.3848023679879709e-01  5.1383835385250665e-01 1.8424360437192486e-01 5.5809896659479041e-01  5.1409440248821647e-01 1.8431314492025611e-01 5.5920101550639856e-01  5.1457366171640062e-01 1.8467717565648203e-01 5.6117111259485053e-01  5.1391583237704286e-01 1.8460992202744123e-01 5.5832667466365360e-01  5.1198678442496015e-01 1.8351128057176927e-01 5.5020102832752815e-01  5.0904753968429262e-01 1.8208567790476396e-01 5.3741142866601732e-01  5.0744438633108613e-01 1.8150309260536782e-01 5.3019233433534529e-01  5.0666890837605050e-01 1.8144956372391996e-01 5.2657224141013437e-01  5.0708130330458656e-01 1.8220264836615302e-01 5.2823645783889228e-01  5.0968142570282271e-01 1.8563793668091835e-01 5.3901322147080344e-01  5.2322433698139892e-01 2.0890427338168410e-01 5.8717982632979160e-01  5.5275166785200025e-01 2.9034637814386410e-01 6.5103027508070221e-01  5.5791483573932266e-01 3.0890222091352343e-01 6.5576984255365023e-01  5.6868614469211309e-01 3.6708562350045887e-01 6.4839068548803336e-01  5.7607641436745916e-01 4.3679656671741618e-01 6.1758740078883823e-01  5.7645944744530297e-01 4.4353507223434968e-01 6.1349876067284836e-01  5.7652516688074007e-01 4.4543230795126088e-01 6.1226008669130505e-01  5.7671246117356734e-01 4.5147724354501551e-01 6.0823375715088013e-01  5.7687747518065213e-01 4.5808862692032171e-01 6.0370348127682349e-01  5.7697309724534929e-01 4.6380991252542481e-01 5.9968062062854710e-01  5.7699334722283946e-01 4.6500462254483743e-01 5.9884888665863889e-01  5.7699799147117592e-01 4.6524365750599173e-01 5.9868470709524746e-01  5.7700016951160638e-01 4.6533816738694372e-01 5.9862099252771017e-01  5.7700344985637797e-01 4.6546585332953988e-01 5.9853608671745318e-01  5.7700297182757598e-01 4.6545208993313464e-01 5.9854480997518200e-01  5.7700661851515489e-01 4.6556513055563481e-01 5.9847221164678044e-01  5.7700908902156378e-01 4.6562129169671157e-01 5.9843846413594370e-01  5.7700936446098028e-01 4.6562713119980043e-01 5.9843502148110217e-01  5.7700716904887905e-01 4.6557599986177595e-01 5.9846593238867263e-01  5.7700944803616216e-01 4.6562803770733568e-01 5.9843463927112572e-01  5.7700970702689691e-01 4.6563276540424325e-01 5.9843198635481121e-01  5.7700978614891274e-01 4.6563414604791958e-01 5.9843122452582664e-01  5.7700984799111754e-01 4.6563513321191186e-01 5.9843069974294061e-01  5.7700985427087015e-01 4.6563522810559055e-01 5.9843065058157974e-01  5.7700985702666963e-01 4.6563526766929897e-01 5.9843063062493707e-01  5.7700985613044120e-01 4.6563525473746531e-01 5.9843063716590472e-01  5.7700985514416292e-01 4.6563524061873285e-01 5.9843064427645742e-01  5.7700985189299048e-01 4.6563519350754595e-01 5.9843066815907919e-01  5.7700984749001849e-01 4.6563512899487353e-01 5.9843070105507989e-01  5.7700984153906520e-01 4.6563504103174358e-01 5.9843074611295843e-01  5.7700983413539575e-01 4.6563493034331704e-01 5.9843080314039265e-01  5.7700982522739208e-01 4.6563479542831809e-01 5.9843087309959409e-01  5.7700981484352010e-01 4.6563463596441962e-01 5.9843095634880306e-01  5.7700980262398749e-01 4.6563444513137631e-01 5.9843105677198605e-01  5.7700978857039154e-01 4.6563422209220390e-01 5.9843117501923937e-01  5.7700977262519448e-01 4.6563396486772796e-01 5.9843131239358349e-01  5.7700975410084143e-01 4.6563366031541098e-01 5.9843147639416072e-01  5.7700971079368812e-01 4.6563293129711342e-01 5.9843187289005417e-01  5.7700968758820648e-01 4.6563253281870937e-01 5.9843209137210340e-01  5.7700966187819269e-01 4.6563208362519226e-01 5.9843233934603479e-01  5.7700963349863421e-01 4.6563157954251289e-01 5.9843261938830816e-01  5.7700960242346488e-01 4.6563101833900733e-01 5.9843293310400936e-01  5.7700956879412113e-01 4.6563040130177097e-01 5.9843328003059637e-01  5.7700953197195504e-01 4.6562971213735344e-01 5.9843367024115879e-01  5.7700949242690414e-01 4.6562895695106454e-01 5.9843410079833670e-01  5.7700945115160995e-01 4.6562815179756989e-01 5.9843456309246357e-01  5.7700940979795634e-01 4.6562732647110278e-01 5.9843504045668383e-01  5.7700937250943851e-01 4.6562656405658459e-01 5.9843548474729058e-01  5.7700931817924062e-01 4.6562538686490151e-01 5.9843618245588970e-01  5.7700924496650685e-01 4.6562373825562980e-01 5.9843716986106443e-01  5.7700912781147029e-01 4.6562104560002288e-01 5.9843879110734022e-01  5.7700867116175536e-01 4.6561009449932433e-01 5.9844545408146432e-01  5.7700840694649935e-01 4.6560340846142700e-01 5.9844957288273370e-01  5.7700811828386034e-01 4.6559576569443556e-01 5.9845432741777105e-01  5.7700779707022520e-01 4.6558685045937398e-01 5.9845992714720053e-01  5.7700743912978925e-01 4.6557642242818842e-01 5.9846653825502272e-01  5.7700704202338582e-01 4.6556426525142691e-01 5.9847431476853485e-01  5.7700660468644782e-01 4.6555017951729877e-01 5.9848340260207766e-01  5.7700612730852052e-01 4.6553398750317820e-01 5.9849393557814745e-01  5.7700561187552279e-01 4.6551553427725606e-01 5.9850603643530609e-01  5.7700505802561153e-01 4.6549451528648744e-01 5.9851993219237865e-01  5.7700447862515813e-01 4.6547123880335700e-01 5.9853543480403770e-01  5.7700388797254509e-01 4.6544600928989849e-01 5.9855236398819012e-01  5.7700277025590518e-01 4.6539291043566283e-01 5.9858841608572122e-01  5.7700202596921457e-01 4.6535388328393706e-01 5.9861517436718936e-01  5.7700117176289711e-01 4.6530633059416487e-01 5.9864795590259678e-01  5.7700023124011657e-01 4.6525055008591387e-01 5.9868661826072944e-01  5.7699922321987451e-01 4.6518695697869233e-01 5.9873091525741962e-01  5.7699816694364869e-01 4.6511639466246746e-01 5.9878028179050169e-01  5.7699706583598043e-01 4.6503899677405286e-01 5.9883463237559764e-01  5.7699498862587928e-01 4.6489178685980681e-01 5.9893807212280348e-01  5.7699438208544251e-01 4.6485177549648976e-01 5.9896604333418468e-01  5.7699401725069066e-01 4.6483228673209848e-01 5.9897942388738235e-01  5.7699380757676266e-01 4.6482547720491696e-01 5.9898381138460610e-01  5.7699372735043197e-01 4.6482925448583889e-01 5.9898068709215424e-01  5.7699373116547259e-01 4.6483882971476326e-01 5.9897349453311854e-01  5.7699377391009810e-01 4.6484918652531482e-01 5.9896584974812017e-01  5.7699373317344094e-01 4.6484427512578924e-01 5.9896940618558214e-01  5.7699346832263831e-01 4.6480753569945160e-01 5.9899614687548519e-01  5.7699293445501143e-01 4.6473531559615794e-01 5.9904868650699683e-01  5.7699206408064241e-01 4.6461949175306727e-01 5.9913294507614734e-01  5.7699074465828792e-01 4.6444719108558158e-01 5.9925829766240213e-01  5.7698882911202609e-01 4.6420299819280819e-01 5.9943595719707066e-01  5.7698606885223913e-01 4.6386299694219113e-01 5.9968326797891558e-01  5.7698198497640840e-01 4.6338469618518907e-01 6.0003091831020960e-01  5.7697538161340745e-01 4.6266559340424390e-01 6.0055275696596733e-01  5.7694061884182835e-01 4.5947195807490071e-01 6.0285868273768861e-01  5.7692065191021846e-01 4.5797262335813727e-01 6.0393301477259365e-01  5.7689759807997121e-01 4.5649477211200012e-01 6.0498440658043084e-01  5.7687182475291776e-01 4.5506433046916533e-01 6.0599436891056879e-01  5.7684557164292261e-01 4.5378085879204549e-01 6.0689360841384565e-01  5.7680825450814710e-01 4.5229289968343961e-01 6.0792094956827858e-01  5.7676683849067012e-01 4.5087286664319443e-01 6.0888720982276967e-01  5.7669451030188867e-01 4.4858182835989391e-01 6.1042950344306723e-01  5.7632238805967628e-01 4.3852523916104047e-01 6.1702469467196475e-01  5.7608817874327023e-01 4.3325363957986263e-01 6.2035600616447961e-01  5.7581831825680141e-01 4.2790179641823017e-01 6.2363438461314880e-01  5.7549823538269851e-01 4.2225120193883109e-01 6.2698037345774660e-01  5.7511498327365573e-01 4.1618283619804258e-01 6.3043991407882383e-01  5.7465466070060356e-01 4.0958543309628359e-01 6.3404620421562896e-01  5.7409145930241512e-01 4.0222297851373140e-01 6.3788527836184816e-01  5.7254331589140883e-01 3.8423334895289374e-01 6.4655492700201311e-01  5.7192973882184628e-01 3.7777815411616511e-01 6.4941573175496536e-01  5.7140338632292975e-01 3.7258531519854510e-01 6.5159088147440491e-01  5.7096856209413815e-01 3.6855469366016391e-01 6.5318870540433738e-01  5.7039293385666345e-01 3.6384220307523091e-01 6.5486589244015514e-01  5.6985660231428936e-01 3.5990344793097495e-01 6.5610883820184085e-01  5.6914938268022930e-01 3.5493811072608966e-01 6.5756229890500761e-01  5.6829266869946149e-01 3.4918486325717663e-01 6.5909632734366785e-01  5.6731324127501992e-01 3.4290577614395157e-01 6.6058554751028187e-01  5.6622304229562648e-01 3.3623062013724692e-01 6.6195410945168864e-01  5.6503913402551820e-01 3.2930915322253351e-01 6.6313286161898422e-01  5.6378644394698463e-01 3.2231957002408257e-01 6.6406454321616537e-01  5.6250465595718191e-01 3.1548817805477614e-01 6.6471157622774701e-01  5.5988091937129469e-01 3.0250361463857806e-01 6.6509170638682213e-01  5.5819597128189358e-01 2.9476853711149781e-01 6.6474769279539814e-01  5.5635502862482389e-01 2.8672098760242470e-01 6.6395386568214143e-01  5.5438410987907027e-01 2.7852967647360644e-01 6.6264735834824673e-01  5.5231742401674078e-01 2.7035761908773370e-01 6.6081779019555420e-01  5.5018251174593835e-01 2.6233544492895172e-01 6.5845941616695025e-01  5.4800012825555622e-01 2.5454523143717972e-01 6.5558367591703981e-01  5.4579477994999404e-01 2.4706948066111348e-01 6.5222534690679357e-01  5.4359322346592098e-01 2.3998497443710023e-01 6.4844120476271194e-01  5.4141018971574395e-01 2.3332017235343178e-01 6.4427719826611174e-01  5.3926475074434110e-01 2.2710613980015137e-01 6.3980263099038537e-01  5.3717675207287174e-01 2.2137242296406459e-01 6.3509547783057085e-01  5.3514957972584420e-01 2.1609711944185128e-01 6.3019953950050511e-01  5.3321219316385826e-01 2.1133934571069901e-01 6.2521566060378031e-01  5.3135187521126381e-01 2.0701694948850061e-01 6.2016514587374316e-01  5.2798738871206763e-01 1.9982619433476620e-01 6.1038181454664175e-01  5.2652430092757130e-01 1.9696576140458905e-01 6.0586265476907897e-01  5.2515887680745621e-01 1.9444813955254897e-01 6.0150200766733830e-01  5.2388607028549738e-01 1.9224785274247852e-01 5.9730286127578058e-01  5.2269495210644523e-01 1.9032042688627601e-01 5.9325784499373213e-01  5.2156454372552419e-01 1.8861230786250066e-01 5.8931437136896869e-01  5.2045283213776494e-01 1.8704927849108385e-01 5.8533530135096312e-01  5.1815406742751180e-01 1.8411444935294799e-01 5.7684361535950512e-01  5.1746966542884154e-01 1.8332169323957986e-01 5.7424510158674003e-01  5.1694842107475503e-01 1.8275715582635615e-01 5.7223633765154158e-01  5.1652692284859725e-01 1.8232937275582456e-01 5.7059202864566350e-01  5.1617342918976772e-01 1.8199110212533307e-01 5.6919980111238744e-01  5.1587117737493160e-01 1.8171574409408214e-01 5.6800085176140502e-01  5.1561063066516077e-01 1.8148739673561426e-01 5.6696197522756631e-01  5.1539066124497668e-01 1.8130060452500868e-01 5.6608148291890437e-01  5.1510187436187760e-01 1.8107079687232708e-01 5.6491781172803845e-01  5.1490238201862526e-01 1.8091991244720562e-01 5.6410940008772692e-01  5.1465043811579070e-01 1.8072805772723075e-01 5.6308710789776095e-01  5.1390699674714035e-01 1.8012506779185186e-01 5.6007286847236870e-01  5.1355817142872018e-01 1.7982339402743683e-01 5.5865884066278626e-01  5.1321955557994436e-01 1.7952355254392577e-01 5.5728359187142584e-01  5.1287970899431001e-01 1.7921746124603238e-01 5.5589983562242296e-01  5.1253161609468778e-01 1.7889674074909329e-01 5.5447938649082540e-01  5.1217182569680419e-01 1.7856158008760525e-01 5.5300613745054661e-01  5.1178555597480102e-01 1.7819137585397063e-01 5.5142147631250082e-01  5.1082319263980480e-01 1.7719730451800650e-01 5.4747450741205084e-01  5.1047959296548950e-01 1.7681345729022732e-01 5.4606714563167458e-01  5.1019710118230122e-01 1.7648653273611153e-01 5.4490988154608122e-01  5.0995822844254279e-01 1.7620087724186420e-01 5.4393146769481393e-01  5.0975477516810286e-01 1.7594972105242662e-01 5.4309865944257718e-01  5.0958161182612116e-01 1.7572911735505173e-01 5.4239063571488078e-01  5.0943532061170205e-01 1.7553666019160039e-01 5.4179347210292184e-01  5.0931315478931727e-01 1.7537060727941947e-01 5.4129585280912784e-01  5.0921241683353358e-01 1.7522933443657709e-01 5.4088648820580909e-01  5.0913112730957744e-01 1.7511182225512856e-01 5.4055702447564036e-01  5.0906728801019885e-01 1.7501700849879892e-01 5.4029894545179336e-01  5.0901954374360991e-01 1.7494433547157165e-01 5.4010642685854082e-01  5.0898662696084718e-01 1.7489320567033967e-01 5.3997400173375709e-01  5.0896742782469817e-01 1.7486295428780779e-01 5.3989689526541706e-01  5.0896226990282722e-01 1.7485655403116193e-01 5.3987536492025157e-01  5.0896401671709857e-01 1.7486529116117269e-01 5.3987958224445809e-01  5.0896567230253165e-01 1.7487733594744762e-01 5.3988177189232933e-01  5.0896678661061656e-01 1.7489093870015535e-01 5.3988054826622101e-01  5.0896573622325114e-01 1.7490191444298289e-01 5.3987000375186078e-01  5.0895581573989901e-01 1.7490152272815040e-01 5.3982117254793072e-01  5.0894353893226019e-01 1.7487673673317247e-01 5.3977436782363841e-01  5.0893288071935117e-01 1.7485608404386618e-01 5.3973303599051969e-01  5.0892521023090120e-01 1.7484128409306737e-01 5.3970320132664984e-01  5.0892046507706090e-01 1.7483209772284042e-01 5.3968474253576326e-01  5.0892091684892349e-01 1.7483297552846633e-01 5.3968649902499344e-01  5.0892731409341674e-01 1.7484532198988137e-01 5.3971140324083089e-01  5.0893817178219836e-01 1.7486585040539737e-01 5.3975386184109841e-01  5.0897569287142352e-01 1.7492916536305705e-01 5.3989870561112174e-01  5.0897867349854731e-01 1.7490698118761733e-01 5.3991901194563108e-01  5.0898245909882234e-01 1.7486662149129054e-01 5.3995011798739900e-01  5.0898952591334323e-01 1.7480888914770570e-01 5.4000307875982445e-01  5.0900257757560963e-01 1.7473351966961667e-01 5.4009038396545261e-01  5.0902433143739501e-01 1.7464086552615277e-01 5.4022431183484432e-01  5.0905896366299053e-01 1.7453077177434678e-01 5.4042394368553082e-01  5.0911256082058398e-01 1.7440237071964404e-01 5.4071726709915080e-01  5.0919561870459995e-01 1.7425293006591780e-01 5.4115295499121185e-01  5.0953947793556353e-01 1.7388093601463597e-01 5.4286037672049592e-01  5.0973424897454134e-01 1.7375635316165983e-01 5.4379264135293071e-01  5.0994147783316024e-01 1.7366552755626907e-01 5.4476671214595274e-01  5.1016293004760938e-01 1.7360557187894807e-01 5.4579130244761009e-01  5.1039729306724402e-01 1.7357447402123080e-01 5.4686088016080170e-01  5.1064311961911890e-01 1.7357183563773157e-01 5.4796873717631256e-01  5.1089778790802165e-01 1.7359647127186065e-01 5.4910325436879048e-01  5.1115809973090864e-01 1.7364667779844326e-01 5.5025053961527270e-01  5.1142005040829341e-01 1.7371986072179299e-01 5.5139360102459778e-01  5.1167810331004548e-01 1.7381234223675032e-01 5.5250916306362075e-01  5.1192483986660875e-01 1.7391865732016368e-01 5.5356651957713332e-01  5.1214799914979037e-01 1.7402983259619975e-01 5.5451505233897824e-01  5.1248291023042314e-01 1.7423346076587687e-01 5.5591970223262799e-01  5.1273430965015210e-01 1.7441177167215094e-01 5.5696037914220498e-01  5.1304455384194503e-01 1.7464591166059948e-01 5.5823548237624654e-01  5.1343033544658867e-01 1.7494980780067454e-01 5.5981070550501588e-01  5.1427439143503872e-01 1.7558978026384001e-01 5.6325226298268904e-01  5.1434686571011157e-01 1.7562779173895729e-01 5.6355337188276033e-01  5.1436878535062969e-01 1.7563389317589073e-01 5.6364628627545788e-01  5.1436921418963466e-01 1.7563399360909260e-01 5.6364810812378141e-01  5.1436051073240285e-01 1.7563732864215423e-01 5.6360909709803242e-01  5.1436780425578832e-01 1.7565967264839552e-01 5.6363222288435166e-01  5.1442609988008259e-01 1.7572792539687904e-01 5.6385915602283132e-01  5.1470770037768687e-01 1.7599737792590484e-01 5.6497655828107451e-01  5.1482227353490162e-01 1.7609252368969983e-01 5.6543548736912663e-01  5.1489635260680289e-01 1.7614346317492519e-01 5.6573558383812705e-01  5.1493785811348280e-01 1.7616657483946999e-01 5.6590544726208170e-01  5.1495108042943794e-01 1.7617353857428705e-01 5.6595966560617039e-01  5.1494304436573157e-01 1.7617155884871158e-01 5.6592592544917453e-01  5.1492048882823149e-01 1.7616648348222860e-01 5.6583099739930509e-01  5.1489533191915671e-01 1.7617566679511690e-01 5.6571968594172362e-01  5.1516874469118457e-01 1.7660632064123602e-01 5.6673779464408369e-01  5.1540380552236165e-01 1.7689798349534372e-01 5.6763985127099070e-01  5.1561370815245366e-01 1.7715624831516702e-01 5.6844432964418978e-01  5.1579405303732873e-01 1.7738010357393241e-01 5.6913345646132307e-01  5.1593424335443050e-01 1.7755659194760229e-01 5.6966738717876408e-01  5.1607915164515639e-01 1.7775127399194737e-01 5.7021378721837890e-01  5.1619179196925535e-01 1.7791459038633378e-01 5.7063331437019460e-01  5.1633516495