<?xml version="1.0"?>
<VTKFile type="UnstructuredGrid"  version="0.1"  >
<UnstructuredGrid>
<Piece  NumberOfPoints="7288" NumberOfCells="14083">
<Points>
<DataArray  type="Float64"  NumberOfComponents="3"  format="ascii">239.8 188 0  250.2 180 0  258.2 172.4 0  257 169.4 0  259.9 157.4 0  258.7 150.3 0  261 143.5 0  251.7 144.4 0  250 138.7 0  247 138.1 0  245.2 130.8 0  247.3 126.4 0  242.7 118.6 0  231.2 107.7 0  226 102.4 0  226.5 93.90000000000001 0  224.5 91.19999999999999 0  224.5 84.09999999999999 0  234.5 73.80000000000001 0  228.4 68.90000000000001 0  230 70 0  233.4 68 0  222.7 61.5 0  220.6 45.5 0  223.4 49.40000000000001 0  224 47 0  221.8 43.09999999999999 0  221 38.40000000000001 0  219.5 38.5 0  219.4 41.69999999999999 0  217.1 36.90000000000001 0  209.7 36 0  209.5 31.69999999999999 0  205.1 29.90000000000001 0  201.5 30.40000000000001 0  199.2 38.69999999999999 0  201.8 41.40000000000001 0  194.8 53.80000000000001 0  196.1 57.69999999999999 0  193 59 0  191.4 66.09999999999999 0  193.5 66.5 0  194.1 64.40000000000001 0  195.6 64.69999999999999 0  195.4 72.40000000000001 0  199.5 77.30000000000001 0  197.7 86.90000000000001 0  200.6 87.5 0  201.5 91 0  198 94.80000000000001 0  198.6 100 0  197.3 105.4 0  198 109.5 0  197 112.7 0  198.3 116.1 0  201.3 122 0  207.2 121 0  208.1 126.7 0  205.6 127.9 0  209.1 134.9 0  210.9 144.4 0  210.1 147.9 0  213 148.4 0  215.4 149.3 0  215.1 152.8 0  219.9 159.7 0  220.3 163.2 0  218.7 164.9 0  219.9 166.7 0  221.9 169.7 0  220 170.3 0  224.9 174.7 0  229.8 177.4 0  229.7 181 0  228 172.9 0  239 178 0  240.4 180 0  239 181.5 0  241.2 185.9 0  242.95 187.99 0  240.5875 187.9975 0  241.375 187.995 0  242.1625 187.9925 0  243.6090909090879 187.2636363636397 0  244.2681818181765 186.5372727272785 0  244.9272727272692 185.810909090913 0  245.5863636363531 185.0845454545571 0  246.245454545445 184.3581818181923 0  246.9045454545351 183.6318181818295 0  247.5636363636303 182.9054545454612 0  248.2227272727197 182.1790909090992 0  248.8818181818179 181.4527272727275 0  249.5409090909066 180.7263636363664 0  250.8666666666961 179.3666666666387 0  251.5333333334033 178.7333333332668 0  252.2000000000994 178.0999999999055 0  252.8666666668011 177.466666666539 0  253.5333333335083 176.8333333331671 0  254.2000000002044 176.1999999998058 0  254.8666666669005 175.5666666664445 0  255.5333333336077 174.9333333330727 0  256.2000000002685 174.2999999997449 0  256.8666666668457 173.6666666664966 0  257.5333333334283 173.033333333243 0  257.9000000000077 171.6500000000191 0  257.6000000000015 170.9000000000038 0  257.2999999999954 170.1499999999885 0  257.2230769230778 168.4769230769195 0  257.4461538461543 167.5538461538442 0  257.6692307692309 166.6307692307688 0  257.8923076923074 165.7076923076935 0  258.115384615384 164.7846153846181 0  258.3384615384605 163.8615384615427 0  258.5615384615395 162.9384615384572 0  258.784615384616 162.0153846153819 0  259.0076923076926 161.0923076923065 0  259.2307692307691 160.1692307692311 0  259.4538461538457 159.2461538461558 0  259.6769230769222 158.3230769230804 0  259.750000000001 156.512500000006 0  259.6000000000014 155.6250000000082 0  259.4500000000029 154.7375000000176 0  259.3000000000018 153.8500000000108 0  259.1500000000007 152.962500000004 0  259.0000000000004 152.0750000000026 0  258.849999999999 151.187499999994 0  258.9875000000052 149.4499999999846 0  259.275000000002 148.5999999999941 0  259.5624999999954 147.7500000000135 0  259.849999999995 146.900000000015 0  260.1374999999945 146.0500000000164 0  260.4249999999913 145.2000000000259 0  260.7124999999948 144.3500000000154 0  260.0700000000398 143.5899999999961 0  259.1400000000573 143.6799999999944 0  258.2100000000351 143.7699999999966 0  257.2800000000262 143.8599999999975 0  256.350000000011 143.9499999999989 0  255.4199999999881 144.0400000000011 0  254.4899999999726 144.1300000000026 0  253.5599999999944 144.2200000000005 0  252.6300000000009 144.3099999999999 0  251.4166666666658 143.4499999999971 0  251.1333333333388 142.5000000000182 0  250.8500000000015 141.5500000000051 0  250.5666666666612 140.5999999999818 0  250.2833333333342 139.6500000000029 0  249.2500000000005 138.5500000000001 0  248.5000000000011 138.4000000000002 0  247.7499999999995 138.2499999999999 0  246.7750000000005 137.1875000000023 0  246.5500000000021 136.2750000000085 0  246.3250000000036 135.3625000000147 0  246.1000000000042 134.450000000017 0  245.8750000000022 133.5375000000088 0  245.650000000003 132.6250000000124 0  245.4250000000046 131.7125000000187 0  245.619999999996 129.9200000000084 0  246.0399999999992 129.0400000000017 0  246.4599999999987 128.1600000000028 0  246.8800000000001 127.2799999999997 0  246.8399999999988 125.6199999999979 0  246.3799999999984 124.8399999999973 0  245.9199999999991 124.0599999999985 0  245.4600000000036 123.2800000000062 0  245.0000000000049 122.5000000000082 0  244.5400000000036 121.7200000000062 0  244.0800000000033 120.9400000000056 0  243.6200000000016 120.1600000000027 0  243.1600000000012 119.3800000000021 0  241.9812499999996 117.9187499999997 0  241.2625000000007 117.2375000000007 0  240.5437500000017 116.5562500000017 0  239.8250000000041 115.875000000004 0  239.1062500000066 115.1937500000063 0  238.3875000000076 114.5125000000072 0  237.6687500000087 113.8312500000082 0  236.9500000000083 113.1500000000079 0  236.231250000008 112.4687500000076 0  235.512500000009 111.7875000000085 0  234.7937500000045 111.1062500000043 0  234.0750000000042 110.4250000000039 0  233.3562500000066 109.7437500000062 0  232.6375000000021 109.062500000002 0  231.9187500000031 108.381250000003 0  230.5500000000004 107.0375000000004 0  229.9000000000021 106.3750000000021 0  229.2500000000038 105.7125000000039 0  228.6000000000041 105.0500000000042 0  227.9500000000018 104.3875000000018 0  227.2999999999952 103.7249999999951 0  226.6500000000024 103.0625000000024 0  226.0555555555555 101.4555555555556 0  226.1111111111111 100.5111111111111 0  226.1666666666667 99.56666666666668 0  226.2222222222222 98.62222222222223 0  226.2777777777778 97.67777777777778 0  226.3333333333333 96.73333333333335 0  226.3888888888889 95.78888888888889 0  226.4444444444445 94.84444444444446 0  226 93.22499999999999 0  225.5000000000026 92.55000000000358 0  225.0000000000026 91.87500000000358 0  224.5 90.31250000000068 0  224.5 89.4250000000097 0  224.5 88.53750000001317 0  224.5 87.65000000001388 0  224.5 86.76250000001457 0  224.5 85.87500000001248 0  224.5 84.9874999999993 0  225.1666666666659 83.41333333333409 0  225.8333333333319 82.72666666666818 0  226.4999999999978 82.04000000000228 0  227.1666666666649 81.35333333333514 0  227.8333333333301 80.66666666667 0  228.4999999999942 79.980000000006 0  229.1666666666601 79.2933333333401 0  229.8333333333316 78.60666666666847 0  230.4999999999975 77.92000000000257 0  231.1666666666644 77.23333333333572 0  231.8333333333295 76.54666666667057 0  232.4999999999972 75.86000000000287 0  233.1666666666681 75.17333333333181 0  233.8333333333368 74.48666666666306 0  233.7499999999995 73.16666666666629 0  233.0000000000018 72.53333333333488 0  232.2500000000014 71.90000000000116 0  231.5000000000009 71.26666666666743 0  230.7500000000005 70.63333333333372 0  229.233333333333 68.75000000000006 0  230.0666666666665 68.60000000000004 0  230.8999999999995 68.45000000000009 0  231.7333333333325 68.30000000000015 0  232.566666666667 68.14999999999995 0  232.5499999999897 68.50000000000607 0  231.7 69 0  230.8500000000103 69.49999999999393 0  227.8300000000008 68.16000000000106 0  227.2600000000064 67.42000000000837 0  226.6900000000077 66.68000000001001 0  226.1200000000024 65.94000000000314 0  225.5500000000108 65.20000000001409 0  224.9800000000098 64.46000000001268 0  224.4100000000007 63.72000000000098 0  223.8399999999971 62.97999999999621 0  223.2699999999993 62.23999999999915 0  222.753846153846 60.56923076923239 0  222.8076923076921 59.63846153846478 0  222.8615384615381 58.70769230769827 0  222.9153846153842 57.77692307693071 0  222.9692307692302 56.84615384616315 0  223.0230769230761 55.91538461539836 0  223.0769230769224 54.98461538462665 0  223.1307692307688 54.05384615385345 0  223.184615384615 53.12307692308312 0  223.2384615384611 52.19230769231556 0  223.2923076923071 51.26153846154906 0  223.3461538461533 50.33076923077847 0  222.8400000000024 48.62000000000327 0  222.2800000000047 47.84000000000661 0  221.7200000000005 47.06000000000071 0  221.1600000000003 46.28000000000039 0  221.4500000000116 45.87500000000512 0  222.3 46.25 0  223.1499999999884 46.62499999999488 0  223.5600000000055 46.22000000000981 0  223.1199999999987 45.43999999999767 0  222.6800000000061 44.66000000001075 0  222.2399999999969 43.8799999999944 0  221.6400000000004 42.16000000000253 0  221.4800000000009 41.22000000000548 0  221.3200000000014 40.28000000000801 0  221.1600000000009 39.34000000000556 0  220.25 38.45 0  219.4749999999999 39.30000000000165 0  219.45 40.09999999999999 0  219.425 40.90000000000112 0  219.0166666666641 40.89999999999463 0  218.6333333333375 40.10000000000875 0  218.2500000000016 39.30000000000339 0  217.8666666666635 38.49999999999351 0  217.483333333337 37.70000000000762 0  216.1750000000165 36.78750000000201 0  215.2500000000275 36.67500000000335 0  214.3250000000385 36.56250000000469 0  213.4000000000277 36.45000000000337 0  212.4750000000059 36.33750000000072 0  211.5499999999838 36.22499999999803 0  210.6249999999835 36.11249999999799 0  209.6600000000001 35.14000000000318 0  209.6200000000001 34.28000000000268 0  209.5800000000001 33.42000000000284 0  209.5399999999998 32.55999999999681 0  208.6200000000117 31.34000000000476 0  207.7400000000138 30.98000000000564 0  206.8600000000162 30.62000000000662 0  205.9800000000174 30.26000000000711 0  204.2000000000054 30.02499999999925 0  203.2999999999946 30.15000000000076 0  202.3999999999945 30.27500000000076 0  201.2444444444438 31.32222222222468 0  200.9888888888895 32.24444444
[...]
<PointData  Vectors="f_12"> 
<DataArray  type="Float64"  Name="f_12"  NumberOfComponents="3" format="ascii">6.3571749564937696e-01 4.1791137093969616e-01 8.0254725842718289e-01  6.3027397249034778e-01 3.8742942861288809e-01 8.2164200711525126e-01  6.2402773284531132e-01 3.5570207890982170e-01 8.3781191812148614e-01  6.2150933036469058e-01 3.4414745758979576e-01 8.4254943669284876e-01  6.0678350329382669e-01 2.8294497706701605e-01 8.5730701115580177e-01  5.9924416289028193e-01 2.5600651357874427e-01 8.5680497145202772e-01  5.9701955908679305e-01 2.4835812169091442e-01 8.5580841230049531e-01  5.8866180257826783e-01 2.2308174962358371e-01 8.4807688747733190e-01  5.7814398553378943e-01 1.9384827810036936e-01 8.3195219818593458e-01  5.7382910634817896e-01 1.8315563329416037e-01 8.2285365765111718e-01  5.6063053956156761e-01 1.5360980947695091e-01 7.8842711587132552e-01  5.5702356424018740e-01 1.4642982076890493e-01 7.7723088935644091e-01  5.5307703558806665e-01 1.3914641802733560e-01 7.6405741089263923e-01  5.4495778796003358e-01 1.2564928491244731e-01 7.3430863293925586e-01  5.3954184467395416e-01 1.1769796696870533e-01 7.1252150152249150e-01  5.3417123028901881e-01 1.1052688985751624e-01 6.8952309307989101e-01  5.3257993654957192e-01 1.0857062389370975e-01 6.8241263863817037e-01  5.2843622093086795e-01 1.0375438870529256e-01 6.6337092019521182e-01  5.2533080882658256e-01 1.0042058922117118e-01 6.4859114701001519e-01  5.2618715973466679e-01 1.0131718497995919e-01 6.5271133806389303e-01  5.2580586377231697e-01 1.0091483727696519e-01 6.5088223822701885e-01  5.2564140268383175e-01 1.0074196388984152e-01 6.5009179900592262e-01  5.3080388109919896e-01 1.0646558721970104e-01 6.7433916048890097e-01  5.3999679721260974e-01 1.1823987012444505e-01 7.1441239778457488e-01  5.3751080102148896e-01 1.1483333734393926e-01 7.0400256352249713e-01  5.4046400499149783e-01 1.1888289619079251e-01 7.1634925622436085e-01  5.4071408851904590e-01 1.1924156932618063e-01 7.1737073042652444e-01  5.4121569068195829e-01 1.1995115549022962e-01 7.1941805751946930e-01  5.4121581825929221e-01 1.1995138286914589e-01 7.1941857421971755e-01  5.4117798924955907e-01 1.1990538882949235e-01 7.1926172717775971e-01  5.4261888402863678e-01 1.2200070849427649e-01 7.2507323562265025e-01  5.4470060581087476e-01 1.2514264561978450e-01 7.3326309119473265e-01  5.4603645128346812e-01 1.2720030733955573e-01 7.3841668813297900e-01  5.4637262632462513e-01 1.2772624926358045e-01 7.3969627003705574e-01  5.4640806061063762e-01 1.2778192045894068e-01 7.3983075214323724e-01  5.4519389312338795e-01 1.2589519268076155e-01 7.3518429396113372e-01  5.4359675564539744e-01 1.2348298161741286e-01 7.2893279240947695e-01  5.3738598637569257e-01 1.1464017725716372e-01 7.0346565218262980e-01  5.3586167243891347e-01 1.1263537572226658e-01 6.9690434034282700e-01  5.3507998799246070e-01 1.1161816404131257e-01 6.9350848425893652e-01  5.3300765661374450e-01 1.0902226197114098e-01 6.8433658626355964e-01  5.3305105416037046e-01 1.0907703139712335e-01 6.8452997028609741e-01  5.3425271733489055e-01 1.1057242820490251e-01 6.8986921047756655e-01  5.3382283588297907e-01 1.1003708961194116e-01 6.8796314219777321e-01  5.3229803064967762e-01 1.0816432250577712e-01 6.8114689876821422e-01  5.3122344052831105e-01 1.0688659049048703e-01 6.7627470088275876e-01  5.3161953548489937e-01 1.0735902953341223e-01 6.7808000539114877e-01  5.3202002055646747e-01 1.0784602064709942e-01 6.7989094245538773e-01  5.3392639058931046e-01 1.1019897087521723e-01 6.8841568382145402e-01  5.3609034728522453e-01 1.1294838492281298e-01 6.9790894584306107e-01  5.3801340047751645e-01 1.1551555885460357e-01 7.0612666723758166e-01  5.4039734542381790e-01 1.1881706188418449e-01 7.1607525704516628e-01  5.4202736073434388e-01 1.2116716122970482e-01 7.2270446100304775e-01  5.4308071832004923e-01 1.2271746024836555e-01 7.2692398818959147e-01  5.4389344049980382e-01 1.2394020574608194e-01 7.3013662565422421e-01  5.4510798004385608e-01 1.2580447441821685e-01 7.3487944163518060e-01  5.4714923568739737e-01 1.2909202635469638e-01 7.4264379860468166e-01  5.5272806808131991e-01 1.3852772902733895e-01 7.6281425427205163e-01  5.5379914180208012e-01 1.4041175952324386e-01 7.6651863974900847e-01  5.5792963007849561e-01 1.4814761553808553e-01 7.8006024176786526e-01  5.6641074896454302e-01 1.6555855534285110e-01 8.0485059268021797e-01  5.6780400928355612e-01 1.6860848977874376e-01 8.0853826401644568e-01  5.6880563209205770e-01 1.7091231464248130e-01 8.1107036812558753e-01  5.7231407849458371e-01 1.7919674831305771e-01 8.1944700757082789e-01  5.7710307337373035e-01 1.9097178075129018e-01 8.2984481944830446e-01  5.8989427760151647e-01 2.2674721866749667e-01 8.4955323911419844e-01  5.9778424643658723e-01 2.5151379917729999e-01 8.5598819747757338e-01  6.0015497859050804e-01 2.5930486836015654e-01 8.5709959535383673e-01  6.0167317341538151e-01 2.6451233532605967e-01 8.5745700655538826e-01  6.0457224993292968e-01 2.7475974070488640e-01 8.5764274302086774e-01  6.0383084601889581e-01 2.7202663723538267e-01 8.5771663414344324e-01  6.0906425914758267e-01 2.9148938459223717e-01 8.5651461138870166e-01  6.1922351740416770e-01 3.3346944784242366e-01 8.4653165451577705e-01  6.2056306292531982e-01 3.3923987584804993e-01 8.4452672529320139e-01  6.1173411704806546e-01 3.0228237507949296e-01 8.5466354001672895e-01  6.2527142760135668e-01 3.6254290444969484e-01 8.3444953435281777e-01  6.3064429912497311e-01 3.9010080042916201e-01 8.1994038133364611e-01  6.3266609542583307e-01 4.0087663850471134e-01 8.1360771915428254e-01  6.3516591499315045e-01 4.1476207221444511e-01 8.0466314522206206e-01  6.3549568271805446e-01 4.1662927776680458e-01 8.0341583313927822e-01  6.3568924928049519e-01 4.1774870716450457e-01 8.0265755679878426e-01  6.3562798601312931e-01 4.1739504785020409e-01 8.0289738826248014e-01  6.3555767636951943e-01 4.1698806857423915e-01 8.0317321054168200e-01  6.3533969257455947e-01 4.1573093810008988e-01 8.0402006177944962e-01  6.3506046600262978e-01 4.1412629036432247e-01 8.0509301174715386e-01  6.3469898592431939e-01 4.1205473003391208e-01 8.0646597360107097e-01  6.3427432206628187e-01 4.0963041429261082e-01 8.0805446398891501e-01  6.3379703537485121e-01 4.0691878604492648e-01 8.0980784618304769e-01  6.3328094213704911e-01 4.0400295411511106e-01 8.1166469846171063e-01  6.3272700963850426e-01 4.0089522156137536e-01 8.1361094996639416e-01  6.3214622534170517e-01 3.9766138655159167e-01 8.1560023232633083e-01  6.3154767035047998e-01 3.9435645058170721e-01 8.1759393696814286e-01  6.3092449936922379e-01 3.9094946399438368e-01 8.1960700755314231e-01  6.2966425064709897e-01 3.8416251400892965e-01 8.2349044179380715e-01  6.2907214725604410e-01 3.8102313863763060e-01 8.2522829106539575e-01  6.2847995837602388e-01 3.7791889252555150e-01 8.2690876717236317e-01  6.2788777316700672e-01 3.7484990157436232e-01 8.2853312354940134e-01  6.2729962986153820e-01 3.7183657650465435e-01 8.3009140520395641e-01  6.2672019355450781e-01 3.6890086379653297e-01 8.3157484859217068e-01  6.2614935108815817e-01 3.6604163352260505e-01 8.3298621958678210e-01  6.2559706719222197e-01 3.6330576355528105e-01 8.3430600111600683e-01  6.2507806707526936e-01 3.6076205689380103e-01 8.3550572378281274e-01  6.2461112837798327e-01 3.5849658976047194e-01 8.3655215167797781e-01  6.2423356203062330e-01 3.5668222404253169e-01 8.3737456043999636e-01  6.2380924664411319e-01 3.5468460648812961e-01 8.3825200856639359e-01  6.2333098774410611e-01 3.5247133953647275e-01 8.3919222695153661e-01  6.2261008371568705e-01 3.4915983652592592e-01 8.4055983684436519e-01  6.2008472900248057e-01 3.3773154818738704e-01 8.4496172230130440e-01  6.1881310619618146e-01 3.3208622500687185e-01 8.4693927362792099e-01  6.1757745377337969e-01 3.2668312772203600e-01 8.4869072139878843e-01  6.1635799555786419e-01 3.2143145435045622e-01 8.5025716744459279e-01  6.1515296777714568e-01 3.1632050715938287e-01 8.5164973317662873e-01  6.1396519745726941e-01 3.1135864768690480e-01 8.5287439554047573e-01  6.1279965843127948e-01 3.0656251633817394e-01 8.5393585983852449e-01  6.1166108300392508e-01 3.0194587065896661e-01 8.5484249636748921e-01  6.1055814074402603e-01 2.9753901654485054e-01 8.5559838861894399e-01  6.0949391272651521e-01 2.9334788615295815e-01 8.5621601615056975e-01  6.0848573900122782e-01 2.8943176695784056e-01 8.5670282124792163e-01  6.0755345649891512e-01 2.8585852055390570e-01 8.5706837171318040e-01  6.0603964427312285e-01 2.8017186981089887e-01 8.5747301733762737e-01  6.0515800322290003e-01 2.7692358723908272e-01 8.5760404517600797e-01  6.0421192103759291e-01 2.7347869551805826e-01 8.5767024017008031e-01  6.0323535285642316e-01 2.6996514797770860e-01 8.5765979655651259e-01  6.0224694598992123e-01 2.6645111394141585e-01 8.5756773789528395e-01  6.0126026290652479e-01 2.6298292421932090e-01 8.5739559670655430e-01  6.0027344012813977e-01 2.5955165176728384e-01 8.5714474171845823e-01  5.9842638985177354e-01 2.5320022535667763e-01 8.5648622368632710e-01  5.9786390199763362e-01 2.5127920193316633e-01 8.5623576623820097e-01  5.9749006677840710e-01 2.5000135629553077e-01 8.5605442030091883e-01  5.9724224721640484e-01 2.4915139373535933e-01 8.5592709466824468e-01  5.9709955546857474e-01 2.4865605854717662e-01 8.5585120080764698e-01  5.9703344546370130e-01 2.4841975488681858e-01 8.5581547493961518e-01  5.9701709998277874e-01 2.4835408173534229e-01 8.5580683373131872e-01  5.9699597511670610e-01 2.4828597702567914e-01 8.5579458694439958e-01  5.9689509277089459e-01 2.4797289721943838e-01 8.5573489483495280e-01  5.9668371214133464e-01 2.4731271101996510e-01 8.5560684093369077e-01  5.9634068594584189e-01 2.4624066617565696e-01 8.5539070627041136e-01  5.9583558706471162e-01 2.4466515273159992e-01 8.5505383134675661e-01  5.9514271154877618e-01 2.4251411530100198e-01 8.5455686574007483e-01  5.9423109980833888e-01 2.3970678482457994e-01 8.5384059916994837e-01  5.9304129892946300e-01 2.3608361034863368e-01 8.5279946210653168e-01  5.9141228103218912e-01 2.3119485906264242e-01 8.5118503911026844e-01  5.8548533431299987e-01 2.1391098875949549e-01 8.4397275176012188e-01  5.8329243270576925e-01 2.0772779809371364e-01 8.4078503298258234e-01  5.8146921036984356e-01 2.0270551235252551e-01 8.3787169674274553e-01  5.7997045517374857e-01 1.9866173488220371e-01 8.3530102196152989e-01  5.7880898729352592e-01 1.9558200534561818e-01 8.3320365396069240e-01  5.7775304567478836e-01 1.9285442152329219e-01 8.3117804805770545e-01  5.7693573275772081e-01 1.9079796193470563e-01 8.2952080646163384e-01  5.7573315622567445e-01 1.8781316905704626e-01 8.2699862238216804e-01  5.7129007016557531e-01 1.7706678731123340e-01 8.1706041027419996e-01  5.6940382048922222e-01 1.7265233845504274e-01 8.1252255610085633e-01  5.6775342253870287e-01 1.6888102342041125e-01 8.0836374212260442e-01  5.6624165173109187e-01 1.6550427177473734e-01 8.0439877974483165e-01  5.6482568782299192e-01 1.6241008195735052e-01 8.0055064323653691e-01  5.6347064696916338e-01 1.5950970046587873e-01 7.9674948913183885e-01  5.6212806986925279e-01 1.5669246096632050e-01 7.9287198050321173e-01  5.5931257465665796e-01 1.5094196869607035e-01 7.8442329052931659e-01  5.5842274355671317e-01 1.4916708989838831e-01 7.8166625642589915e-01  5.5776042575989415e-01 1.4786247283988693e-01 7.7958219416097285e-01  5.5728429072197783e-01 1.4693403324186652e-01 7.7806705684039279e-01  5.5681202927357998e-01 1.4602601562839534e-01 7.7654608700952155e-01  5.5647932969372205e-01 1.4539536465900499e-01 7.7546322125055811e-01  5.5608582293622333e-01 1.4465453444096568e-01 7.7417479208480200e-01  5.5565435680003450e-01 1.4384784468250750e-01 7.7275290816304065e-01  5.5520799451029546e-01 1.4301931659089959e-01 7.7127188793731694e-01  5.5475468752103108e-01 1.4218404224195785e-01 7.6975717931994037e-01  5.5430293194297675e-01 1.4135770629160258e-01 7.6823696784405204e-01  5.5386281492740863e-01 1.4055851524205892e-01 7.6674567256559667e-01  5.5344466558934924e-01 1.3980461928998428e-01 7.6531934409065683e-01  5.5267688193385833e-01 1.3843578835699552e-01 7.6267419392934621e-01  5.5222839203664253e-01 1.3764549096230783e-01 7.6111315869618057e-01  5.5176166075883415e-01 1.3682931679252905e-01 7.5947743831129000e-01  5.5128081907660442e-01 1.3599525185462075e-01 7.5777985355578592e-01  5.5079074009713702e-01 1.3515198784887297e-01 7.5603705351824491e-01  5.5029441582984429e-01 1.3430507573677156e-01 7.5425891142668566e-01  5.4979167083430003e-01 1.3345449593339137e-01 7.5244423742495681e-01  5.4928332225584098e-01 1.3260187729103698e-01 7.5059553392607792e-01  5.4877096763903421e-01 1.3175005526908182e-01 7.4871834866937592e-01  5.4825239166156436e-01 1.3089568415713526e-01 7.4680397983790336e-01  5.4772734622787012e-01 1.3003854086548219e-01 7.4485119271261047e-01  5.4719646045057790e-01 1.2917988532764987e-01 7.4286194070686418e-01  5.4665464345802306e-01 1.2831197326864868e-01 7.4081631604255449e-01  5.4610584071832957e-01 1.2744178485896310e-01 7.3872807493165171e-01  5.4554146408892823e-01 1.2655596584953402e-01 7.3656401404373972e-01  5.4439562408444742e-01 1.2478524308455240e-01 7.3211948842451580e-01  5.4382617995865234e-01 1.2391935076717096e-01 7.2988491161419533e-01  5.4324266889586004e-01 1.2304153310911671e-01 7.2757778429166675e-01  5.4263534711680217e-01 1.2213883887154300e-01 7.2515646789107036e-01  5.4200070012091306e-01 1.2120685766633771e-01 7.2260509761257807e-01  5.4131904868105862e-01 1.2021876224142858e-01 7.1984029020382512e-01  5.4054745293026563e-01 1.1911578332214447e-01 7.1668021953992667e-01  5.3851397343282603e-01 1.1626958948166216e-01 7.0822858873012084e-01  5.3773207743095874e-01 1.1519828426300820e-01 7.0493159600305022e-01  5.3704889856105709e-01 1.1427513707754447e-01 7.0202516288606787e-01  5.3642877610420814e-01 1.1344812480311149e-01 6.9936600691961304e-01  5.3585893696752296e-01 1.1269733095793713e-01 6.9690534884464206e-01  5.3533688334086482e-01 1.1201727675604058e-01 6.9463684895908706e-01  5.3486627258798691e-01 1.1141067550629351e-01 6.9258046514541705e-01  5.3446089596440083e-01 1.1089322934888717e-01 6.9080048737806854e-01  5.3393777675317144e-01 1.1023541439214536e-01 6.8848781679325277e-01  5.3358881131534008e-01 1.0980315675239627e-01 6.8693459399124224e-01  5.3315730660496918e-01 1.0927330556482606e-01 6.8500566611309344e-01  5.3193724824145416e-01 1.0779594424850358e-01 6.7951165296121563e-01  5.3139890658073741e-01 1.0715379924060182e-01 6.7706848442760792e-01  5.3090158405391963e-01 1.0656701295568891e-01 6.7479916551601571e-01  5.3042614573907276e-01 1.0601209922993862e-01 6.7261839633991261e-01  5.2996127012243321e-01 1.0547550279446204e-01 6.7047515997184404e-01  5.2950076048157124e-01 1.0494976063572706e-01 6.6834122894946657e-01  5.2902312619987446e-01 1.0441028575971885e-01 6.6611710721362738e-01  5.2785689803822644e-01 1.0311383863329038e-01 6.6064763846207109e-01  5.2743513685607701e-01 1.0265208636917522e-01 6.5865625435893282e-01  5.2708270130334067e-01 1.0226974214753380e-01 6.5698561002347333e-01  5.2677802438385835e-01 1.0194197501446253e-01 6.5553635749826433e-01  5.2651154174909298e-01 1.0165743876906204e-01 6.5426501938942427e-01  5.2627787577702945e-01 1.0140958017627774e-01 6.5314741424099976e-01  5.2607378801833771e-01 1.0119435219714194e-01 6.5216913472783200e-01  5.2589701223660656e-01 1.0100887561322323e-01 6.5132016563634243e-01  5.2574580397247883e-01 1.0085091254464036e-01 6.5059282244386607e-01  5.2561901000002842e-01 1.0071894346804466e-01 6.4998209080035052e-01  5.2551581679422776e-01 1.0061186108017377e-01 6.4948449035673894e-01  5.2543572858956655e-01 1.0052895318820787e-01 6.4909796322130686e-01  5.2537849909092849e-01 1.0046981220435089e-01 6.4882157825156594e-01  5.2534417947081535e-01 1.0043438661466801e-01 6.4865576298935845e-01  5.2534558511101237e-01 1.0043586347614081e-01 6.4866256375204989e-01  5.2538588185972579e-01 1.0047755896021988e-01 6.4885727235327084e-01  5.2545256967472076e-01 1.0054666524506670e-01 6.4917933616930956e-01  5.2554555442619522e-01 1.0064323082702954e-01 6.4962805809367985e-01  5.2566415645387565e-01 1.0076674860054205e-01 6.5019984512672546e-01  5.2592893677692831e-01 1.0104434466352580e-01 6.5147339387559344e-01  5.2580039361329534e-01 1.0090887379177213e-01 6.5085638221878306e-01  5.2572864714780365e-01 1.0083342491027431e-01 6.5051161632249654e-01  5.2568239411273721e-01 1.0078489195858487e-01 6.5028913197160010e-01  5.2565457310003227e-01 1.0075574736748527e-01 6.5015521785832353e-01  5.2565722557904448e-01 1.0075852378533759e-01 6.5016798940582621e-01  5.2569411637517338e-01 1.0079717740163838e-01 6.5034554676698075e-01  5.2575117451717912e-01 1.0085709218283179e-01 6.5061992317297379e-01  5.2655854148223191e-01 1.0171159751691708e-01 6.5448814303176472e-01  5.2688999998410735e-01 1.0206604790767862e-01 6.5606937317277547e-01  5.2723108706952027e-01 1.0243371840854328e-01 6.5769113406759494e-01  5.2759471913212064e-01 1.0282909849701924e-01 6.5941387521157213e-01  5.2798792308610132e-01 1.0326063666627325e-01 6.6126943958006246e-01  5.2841603076563692e-01 1.0373518344460703e-01 6.6328107106321910e-01  5.2888630918017354e-01 1.0426209865926001e-01 6.6548034378773968e-01  5.2941033616912558e-01 1.0485599680075394e-01 6.6791798219568910e-01  5.3001490942781404e-01 1.0554943188101291e-01 6.7071377954965417e-01  5.3161332780553605e-01 1.0741753460011039e-01 6.7803412921707840e-01  5.3226265947908658e-01 1.0819107676582282e-01 6.8097764848144093e-01  5.3286328569514740e-01 1.0891560839539914e-01 6.8368208275499431e-01  5.3343447579822800e-01 1.0961327130224631e-01 6.8623694142425407e-01  5.3398729010658641e-01 1.1029643308053541e-01 6.8869409540935334e-01  5.3452299733744058e-01 1.1096593582104498e-01 6.9106069118965863e-01  5.3504194468383459e-01 1.1162144097491629e-01 6.9333975613775400e-01  5.3554245041613069e-01 1.1226006900498191e-01 6.9552535428322892e-01  5.3602141452034746e-01 1.1287705574781287e-01 6.9760552812630594e-01  5.3647269203783088e-01 1.1346364002879233e-01 6.9955528162805036e-01  5.3688853003508630e-01 1.1400873702771964e-01 7.0134321212266260e-01  5.3725391865943295e-01 1.1449149079620533e-01 7.0290727562411814e-01  5.3778683995436427e-01 1.1520471767240992e-01 7.0517293755309185e-01  5.3817615798106999e-01 1.1573249007464467e-01 7.0681627328799013e-01  5.3864242132695528e-01 1.1636940900232963e-01 7.0877443954204766e-01  5.3920119825546287e-01 1.1713841943105459e-01 7.1110784799426263e-01  5.4034198210478335e-01 1.1871641765134752e-01 7.1584334976650643e-01  5.4043166389174302e-01 1.1883925207330015e-01 7.1621518528423944e-01  5.4045735533117512e-01 1.1887399985111123e-01 7.1632170559639863e-01  5.4045785307848315e-01 1.1887467320522571e-01 7.1632376466656023e-01  5.4044917480617072e-01 1.1886353282385298e-01 7.1628749232873357e-01  5.4046309712265472e-01 1.1888471875907083e-01 7.1634359342896747e-01  5.4054469972835550e-01 1.1900127459687321e-01 7.1667736720499364e-01  5.4091657093722945e-01 1.1952843720533547e-01 7.1819860055812634e-01  5.4106126517888631e-01 1.1973331086706446e-01 7.1878916447621122e-01  5.4115102453467878e-01 1.1986006524736355e-01 7.1915497066256096e-01  5.4119952747126399e-01 1.1992840028227524e-01 7.1935234633685896e-01  5.4121484468042003e-01 1.1994999091909669e-01 7.1941461606998536e-01  5.4120623939172119e-01 1.1993799731048702e-01 7.1937962637614572e-01  5.4118224327711095e-01 1.1990464398882043e-01 7.1928194752487018e-01  5.4116014767355292e-01 1.1987515110077163e-01 7.1919148907421038e-01  5.4155305129050790e-01 1.2044827810521860e-01 7.2078225277357888e-01  5.4185816811155407e-01 1.2089040997967482e-01 7.2201591094338002e-01  5.4212415563012595e-01 1.2127712451388671e-01 7.2308800358090641e-01  5.4234965670938795e-01 1.2160614135155073e-01 7.2399436982401388e-01  5.4252348661357186e-01 1.2186061059527170e-01 7.2469140821806122e-01  5.4270607805301818e-01 1.2212967841808361e-01 7.2542119829468699e-01  5.4285112964795679e-01 1.2234506434648504e-01 7.2599892395584464e-01  5.4303412793