<?xml version="1.0"?>
<VTKFile type="UnstructuredGrid"  version="0.1"  >
<UnstructuredGrid>
<Piece  NumberOfPoints="7288" NumberOfCells="14083">
<Points>
<DataArray  type="Float64"  NumberOfComponents="3"  format="ascii">239.8 188 0  250.2 180 0  258.2 172.4 0  257 169.4 0  259.9 157.4 0  258.7 150.3 0  261 143.5 0  251.7 144.4 0  250 138.7 0  247 138.1 0  245.2 130.8 0  247.3 126.4 0  242.7 118.6 0  231.2 107.7 0  226 102.4 0  226.5 93.90000000000001 0  224.5 91.19999999999999 0  224.5 84.09999999999999 0  234.5 73.80000000000001 0  228.4 68.90000000000001 0  230 70 0  233.4 68 0  222.7 61.5 0  220.6 45.5 0  223.4 49.40000000000001 0  224 47 0  221.8 43.09999999999999 0  221 38.40000000000001 0  219.5 38.5 0  219.4 41.69999999999999 0  217.1 36.90000000000001 0  209.7 36 0  209.5 31.69999999999999 0  205.1 29.90000000000001 0  201.5 30.40000000000001 0  199.2 38.69999999999999 0  201.8 41.40000000000001 0  194.8 53.80000000000001 0  196.1 57.69999999999999 0  193 59 0  191.4 66.09999999999999 0  193.5 66.5 0  194.1 64.40000000000001 0  195.6 64.69999999999999 0  195.4 72.40000000000001 0  199.5 77.30000000000001 0  197.7 86.90000000000001 0  200.6 87.5 0  201.5 91 0  198 94.80000000000001 0  198.6 100 0  197.3 105.4 0  198 109.5 0  197 112.7 0  198.3 116.1 0  201.3 122 0  207.2 121 0  208.1 126.7 0  205.6 127.9 0  209.1 134.9 0  210.9 144.4 0  210.1 147.9 0  213 148.4 0  215.4 149.3 0  215.1 152.8 0  219.9 159.7 0  220.3 163.2 0  218.7 164.9 0  219.9 166.7 0  221.9 169.7 0  220 170.3 0  224.9 174.7 0  229.8 177.4 0  229.7 181 0  228 172.9 0  239 178 0  240.4 180 0  239 181.5 0  241.2 185.9 0  242.95 187.99 0  240.5875 187.9975 0  241.375 187.995 0  242.1625 187.9925 0  243.6090909090879 187.2636363636397 0  244.2681818181765 186.5372727272785 0  244.9272727272692 185.810909090913 0  245.5863636363531 185.0845454545571 0  246.245454545445 184.3581818181923 0  246.9045454545351 183.6318181818295 0  247.5636363636303 182.9054545454612 0  248.2227272727197 182.1790909090992 0  248.8818181818179 181.4527272727275 0  249.5409090909066 180.7263636363664 0  250.8666666666961 179.3666666666387 0  251.5333333334033 178.7333333332668 0  252.2000000000994 178.0999999999055 0  252.8666666668011 177.466666666539 0  253.5333333335083 176.8333333331671 0  254.2000000002044 176.1999999998058 0  254.8666666669005 175.5666666664445 0  255.5333333336077 174.9333333330727 0  256.2000000002685 174.2999999997449 0  256.8666666668457 173.6666666664966 0  257.5333333334283 173.033333333243 0  257.9000000000077 171.6500000000191 0  257.6000000000015 170.9000000000038 0  257.2999999999954 170.1499999999885 0  257.2230769230778 168.4769230769195 0  257.4461538461543 167.5538461538442 0  257.6692307692309 166.6307692307688 0  257.8923076923074 165.7076923076935 0  258.115384615384 164.7846153846181 0  258.3384615384605 163.8615384615427 0  258.5615384615395 162.9384615384572 0  258.784615384616 162.0153846153819 0  259.0076923076926 161.0923076923065 0  259.2307692307691 160.1692307692311 0  259.4538461538457 159.2461538461558 0  259.6769230769222 158.3230769230804 0  259.750000000001 156.512500000006 0  259.6000000000014 155.6250000000082 0  259.4500000000029 154.7375000000176 0  259.3000000000018 153.8500000000108 0  259.1500000000007 152.962500000004 0  259.0000000000004 152.0750000000026 0  258.849999999999 151.187499999994 0  258.9875000000052 149.4499999999846 0  259.275000000002 148.5999999999941 0  259.5624999999954 147.7500000000135 0  259.849999999995 146.900000000015 0  260.1374999999945 146.0500000000164 0  260.4249999999913 145.2000000000259 0  260.7124999999948 144.3500000000154 0  260.0700000000398 143.5899999999961 0  259.1400000000573 143.6799999999944 0  258.2100000000351 143.7699999999966 0  257.2800000000262 143.8599999999975 0  256.350000000011 143.9499999999989 0  255.4199999999881 144.0400000000011 0  254.4899999999726 144.1300000000026 0  253.5599999999944 144.2200000000005 0  252.6300000000009 144.3099999999999 0  251.4166666666658 143.4499999999971 0  251.1333333333388 142.5000000000182 0  250.8500000000015 141.5500000000051 0  250.5666666666612 140.5999999999818 0  250.2833333333342 139.6500000000029 0  249.2500000000005 138.5500000000001 0  248.5000000000011 138.4000000000002 0  247.7499999999995 138.2499999999999 0  246.7750000000005 137.1875000000023 0  246.5500000000021 136.2750000000085 0  246.3250000000036 135.3625000000147 0  246.1000000000042 134.450000000017 0  245.8750000000022 133.5375000000088 0  245.650000000003 132.6250000000124 0  245.4250000000046 131.7125000000187 0  245.619999999996 129.9200000000084 0  246.0399999999992 129.0400000000017 0  246.4599999999987 128.1600000000028 0  246.8800000000001 127.2799999999997 0  246.8399999999988 125.6199999999979 0  246.3799999999984 124.8399999999973 0  245.9199999999991 124.0599999999985 0  245.4600000000036 123.2800000000062 0  245.0000000000049 122.5000000000082 0  244.5400000000036 121.7200000000062 0  244.0800000000033 120.9400000000056 0  243.6200000000016 120.1600000000027 0  243.1600000000012 119.3800000000021 0  241.9812499999996 117.9187499999997 0  241.2625000000007 117.2375000000007 0  240.5437500000017 116.5562500000017 0  239.8250000000041 115.875000000004 0  239.1062500000066 115.1937500000063 0  238.3875000000076 114.5125000000072 0  237.6687500000087 113.8312500000082 0  236.9500000000083 113.1500000000079 0  236.231250000008 112.4687500000076 0  235.512500000009 111.7875000000085 0  234.7937500000045 111.1062500000043 0  234.0750000000042 110.4250000000039 0  233.3562500000066 109.7437500000062 0  232.6375000000021 109.062500000002 0  231.9187500000031 108.381250000003 0  230.5500000000004 107.0375000000004 0  229.9000000000021 106.3750000000021 0  229.2500000000038 105.7125000000039 0  228.6000000000041 105.0500000000042 0  227.9500000000018 104.3875000000018 0  227.2999999999952 103.7249999999951 0  226.6500000000024 103.0625000000024 0  226.0555555555555 101.4555555555556 0  226.1111111111111 100.5111111111111 0  226.1666666666667 99.56666666666668 0  226.2222222222222 98.62222222222223 0  226.2777777777778 97.67777777777778 0  226.3333333333333 96.73333333333335 0  226.3888888888889 95.78888888888889 0  226.4444444444445 94.84444444444446 0  226 93.22499999999999 0  225.5000000000026 92.55000000000358 0  225.0000000000026 91.87500000000358 0  224.5 90.31250000000068 0  224.5 89.4250000000097 0  224.5 88.53750000001317 0  224.5 87.65000000001388 0  224.5 86.76250000001457 0  224.5 85.87500000001248 0  224.5 84.9874999999993 0  225.1666666666659 83.41333333333409 0  225.8333333333319 82.72666666666818 0  226.4999999999978 82.04000000000228 0  227.1666666666649 81.35333333333514 0  227.8333333333301 80.66666666667 0  228.4999999999942 79.980000000006 0  229.1666666666601 79.2933333333401 0  229.8333333333316 78.60666666666847 0  230.4999999999975 77.92000000000257 0  231.1666666666644 77.23333333333572 0  231.8333333333295 76.54666666667057 0  232.4999999999972 75.86000000000287 0  233.1666666666681 75.17333333333181 0  233.8333333333368 74.48666666666306 0  233.7499999999995 73.16666666666629 0  233.0000000000018 72.53333333333488 0  232.2500000000014 71.90000000000116 0  231.5000000000009 71.26666666666743 0  230.7500000000005 70.63333333333372 0  229.233333333333 68.75000000000006 0  230.0666666666665 68.60000000000004 0  230.8999999999995 68.45000000000009 0  231.7333333333325 68.30000000000015 0  232.566666666667 68.14999999999995 0  232.5499999999897 68.50000000000607 0  231.7 69 0  230.8500000000103 69.49999999999393 0  227.8300000000008 68.16000000000106 0  227.2600000000064 67.42000000000837 0  226.6900000000077 66.68000000001001 0  226.1200000000024 65.94000000000314 0  225.5500000000108 65.20000000001409 0  224.9800000000098 64.46000000001268 0  224.4100000000007 63.72000000000098 0  223.8399999999971 62.97999999999621 0  223.2699999999993 62.23999999999915 0  222.753846153846 60.56923076923239 0  222.8076923076921 59.63846153846478 0  222.8615384615381 58.70769230769827 0  222.9153846153842 57.77692307693071 0  222.9692307692302 56.84615384616315 0  223.0230769230761 55.91538461539836 0  223.0769230769224 54.98461538462665 0  223.1307692307688 54.05384615385345 0  223.184615384615 53.12307692308312 0  223.2384615384611 52.19230769231556 0  223.2923076923071 51.26153846154906 0  223.3461538461533 50.33076923077847 0  222.8400000000024 48.62000000000327 0  222.2800000000047 47.84000000000661 0  221.7200000000005 47.06000000000071 0  221.1600000000003 46.28000000000039 0  221.4500000000116 45.87500000000512 0  222.3 46.25 0  223.1499999999884 46.62499999999488 0  223.5600000000055 46.22000000000981 0  223.1199999999987 45.43999999999767 0  222.6800000000061 44.66000000001075 0  222.2399999999969 43.8799999999944 0  221.6400000000004 42.16000000000253 0  221.4800000000009 41.22000000000548 0  221.3200000000014 40.28000000000801 0  221.1600000000009 39.34000000000556 0  220.25 38.45 0  219.4749999999999 39.30000000000165 0  219.45 40.09999999999999 0  219.425 40.90000000000112 0  219.0166666666641 40.89999999999463 0  218.6333333333375 40.10000000000875 0  218.2500000000016 39.30000000000339 0  217.8666666666635 38.49999999999351 0  217.483333333337 37.70000000000762 0  216.1750000000165 36.78750000000201 0  215.2500000000275 36.67500000000335 0  214.3250000000385 36.56250000000469 0  213.4000000000277 36.45000000000337 0  212.4750000000059 36.33750000000072 0  211.5499999999838 36.22499999999803 0  210.6249999999835 36.11249999999799 0  209.6600000000001 35.14000000000318 0  209.6200000000001 34.28000000000268 0  209.5800000000001 33.42000000000284 0  209.5399999999998 32.55999999999681 0  208.6200000000117 31.34000000000476 0  207.7400000000138 30.98000000000564 0  206.8600000000162 30.62000000000662 0  205.9800000000174 30.26000000000711 0  204.2000000000054 30.02499999999925 0  203.2999999999946 30.15000000000076 0  202.3999999999945 30.27500000000076 0  201.2444444444438 31.32222222222468 0  200.9888888888895 32.24444444
[...]
<PointData  Vectors="f_12"> 
<DataArray  type="Float64"  Name="f_12"  NumberOfComponents="3" format="ascii">4.5923299719943134e-01 1.2417024635424807e-01 2.3252975834997941e-01  4.5923299719972904e-01 1.2417024635411007e-01 2.3252975835138806e-01  4.5923299720559824e-01 1.2417024634214435e-01 2.3252975838250059e-01  4.5923299722698918e-01 1.2417024624385464e-01 2.3252975851428839e-01  4.5923298944116980e-01 1.2417022367197814e-01 2.3252972463139354e-01  4.5923267129335926e-01 1.2417040355855945e-01 2.3252791588335811e-01  4.5923266386123857e-01 1.2417036575126572e-01 2.3252789292361603e-01  4.5919173762420129e-01 1.2431167613350230e-01 2.3223020846876977e-01  4.5894235992147625e-01 1.2587382996685131e-01 2.3000865504445342e-01  4.5860105309484750e-01 1.3085351842994034e-01 2.2540189843005690e-01  4.6320528454211640e-01 2.2804894706715842e-01 1.9813279026484151e-01  4.7361036195761030e-01 3.3208302324007655e-01 1.9460296994972953e-01  5.2850395711899623e-01 5.9664523581614803e-01 2.8641288058481640e-01  5.2669000975794411e-01 6.1651883484393588e-01 2.6099022792773324e-01  4.9331564669969646e-01 5.0747094465783782e-01 1.8131084316597065e-01  5.0469466071949831e-01 5.6988201811144001e-01 1.9040772858841332e-01  5.1479542363613873e-01 6.1362139278997641e-01 2.0345266339964385e-01  5.4674176701572907e-01 7.0250951086005931e-01 2.5933933855342578e-01  5.6509230949900224e-01 6.9351287295913655e-01 3.4208645465880427e-01  5.6487379312619357e-01 7.0861025140957268e-01 3.2207679622793078e-01  5.6530975973952313e-01 7.0290335063977927e-01 3.3086761161648021e-01  5.6549914348749619e-01 6.9936044798543906e-01 3.3536816131618030e-01  5.5169360492304054e-01 7.2407436013315873e-01 2.5526798460329958e-01  5.5328669317484125e-01 7.2935517467211364e-01 2.5387494112381526e-01  5.4871003988637346e-01 7.2394283408751980e-01 2.4359607690518112e-01  5.5714294156241240e-01 7.3467381329768477e-01 2.6141401880683296e-01  5.5556252482688573e-01 7.3204824198447771e-01 2.5887767654780264e-01  5.5918625927684518e-01 7.3622180793316405e-01 2.6653048726214318e-01  5.5914647170289999e-01 7.3616868896854992e-01 2.6645376883077360e-01  5.5328019502171977e-01 7.2794566310486308e-01 2.5507733312145570e-01  5.4093799080901583e-01 7.0508620971828939e-01 2.3322848270967309e-01  5.2141130731350860e-01 6.4726358143080920e-01 2.0463261138411928e-01  5.1281952146794341e-01 6.1526103378340646e-01 1.9262924283119032e-01  5.1056656185319149e-01 6.0595131813604064e-01 1.8955832328135161e-01  5.1004411229546365e-01 6.0377092650729169e-01 1.8884219113685868e-01  5.1427681929574720e-01 6.2177085341989036e-01 1.9415076812342294e-01  5.2096431100068885e-01 6.4708055606637627e-01 2.0304012523030923e-01  5.4508447169792307e-01 7.1590830974169217e-01 2.3867870312277711e-01  5.5282866494925964e-01 7.2917299051875895e-01 2.5302964631904828e-01  5.5772543947414588e-01 7.3640065013368572e-01 2.6237188528249195e-01  5.6877299005610393e-01 7.4660700585685369e-01 2.8622350858794776e-01  5.6801894664002717e-01 7.4611199030784014e-01 2.8448074392245726e-01  5.6174293984511947e-01 7.4085807569876161e-01 2.7069539598680847e-01  5.6344721553427934e-01 7.4240810448204408e-01 2.7436919337724602e-01  5.6645894521616635e-01 7.4517635787187331e-01 2.8075024142248595e-01  5.5593631325459059e-01 7.3309847909006176e-01 2.5971148620996959e-01  5.4120466072246087e-01 7.0651103452696296e-01 2.3346447478540674e-01  5.3902851006245112e-01 7.0038134471103142e-01 2.3076785520378379e-01  5.3135634859267100e-01 6.7677641977432379e-01 2.2151483854331605e-01  5.2481306666989691e-01 6.5366800264598757e-01 2.1427615851106957e-01  5.1467720268895290e-01 6.1395525798475570e-01 2.0274795096143972e-01  5.0542582606823849e-01 5.7061586223771243e-01 1.9446215468073988e-01  5.0576108359078176e-01 5.5967386885218062e-01 2.0641117434154113e-01  5.0800963214800965e-01 5.5489014542256621e-01 2.2354693241605741e-01  5.1094506482147528e-01 5.4795741184605984e-01 2.4712934483336499e-01  5.1636314849025866e-01 5.3477910693233910e-01 2.9171973178763794e-01  5.3261365229029811e-01 5.8703399432141634e-01 3.2208125484574118e-01  5.0433443343754758e-01 4.9857433475253615e-01 2.4789211629512589e-01  4.9129409757262243e-01 4.4491437783796683e-01 2.1811683225280940e-01  4.6591216795167217e-01 2.5165410918843212e-01 2.0022731196705754e-01  4.5855838453864017e-01 1.2973616176606428e-01 2.2580777204821045e-01  4.5885296226820960e-01 1.2600583434127280e-01 2.2947127894609726e-01  4.5890097733280588e-01 1.2572218635766935e-01 2.2988730369726434e-01  4.5905216361197082e-01 1.2491189381371182e-01 2.3115077410954160e-01  4.5919269950573993e-01 1.2427973010480210e-01 2.3225526069316399e-01  4.5923175841828673e-01 1.2417111196734656e-01 2.3252266542196331e-01  4.5923290432122316e-01 1.2417017893070496e-01 2.3252928373452744e-01  4.5923297987074796e-01 1.2417020426116204e-01 2.3252968051755066e-01  4.5923299026654679e-01 1.2417022076377533e-01 2.3252973005207297e-01  4.5923299687879204e-01 1.2417023937865793e-01 2.3252975873256787e-01  4.5923299697675979e-01 1.2417023893755641e-01 2.3252975936147835e-01  4.5923299731558492e-01 1.2417024578361234e-01 2.3252975907183984e-01  4.5923299720949068e-01 1.2417024632993108e-01 2.3252975840437737e-01  4.5923299720153937e-01 1.2417024635217382e-01 2.3252975836031914e-01  4.5923299729372119e-01 1.2417024565477686e-01 2.3252975900690523e-01  4.5923299720334504e-01 1.2417024634731179e-01 2.3252975837030088e-01  4.5923299720016508e-01 1.2417024635347404e-01 2.3252975835360240e-01  4.5923299719959193e-01 1.2417024635418029e-01 2.3252975835073550e-01  4.5923299719943839e-01 1.2417024635425084e-01 2.3252975835000939e-01  4.5923299719943250e-01 1.2417024635424907e-01 2.3252975834998421e-01  4.5923299719943161e-01 1.2417024635424828e-01 2.3252975834998013e-01  4.5923299719943189e-01 1.2417024635424855e-01 2.3252975834998177e-01  4.5923299719943222e-01 1.2417024635424886e-01 2.3252975834998302e-01  4.5923299719943372e-01 1.2417024635424978e-01 2.3252975834998918e-01  4.5923299719943611e-01 1.2417024635425115e-01 2.3252975834999989e-01  4.5923299719944005e-01 1.2417024635425283e-01 2.3252975835001799e-01  4.5923299719944649e-01 1.2417024635425455e-01 2.3252975835004633e-01  4.5923299719945626e-01 1.2417024635425590e-01 2.3252975835008993e-01  4.5923299719947036e-01 1.2417024635425597e-01 2.3252975835015466e-01  4.5923299719949218e-01 1.2417024635425251e-01 2.3252975835025502e-01  4.5923299719952360e-01 1.2417024635424322e-01 2.3252975835040182e-01  4.5923299719956817e-01 1.2417024635422381e-01 2.3252975835061215e-01  4.5923299719963462e-01 1.2417024635418304e-01 2.3252975835092990e-01  4.5923299719984217e-01 1.2417024635401042e-01 2.3252975835193843e-01  4.5923299719998023e-01 1.2417024635387372e-01 2.3252975835261866e-01  4.5923299720016453e-01 1.2417024635366330e-01 2.3252975835353540e-01  4.5923299720040361e-01 1.2417024635335716e-01 2.3252975835473885e-01  4.5923299720071026e-01 1.2417024635292215e-01 2.3252975835629577e-01  4.5923299720109095e-01 1.2417024635233791e-01 2.3252975835824594e-01  4.5923299720158611e-01 1.2417024635149271e-01 2.3252975836081302e-01  4.5923299720221317e-01 1.2417024635031737e-01 2.3252975836410159e-01  4.5923299720298660e-01 1.2417024634872119e-01 2.3252975836821060e-01  4.5923299720390615e-01 1.2417024634662646e-01 2.3252975837316439e-01  4.5923299720489041e-01 1.2417024634413522e-01 2.3252975837855319e-01  4.5923299720694111e-01 1.2417024633760908e-01 2.3252975839024356e-01  4.5923299721032390e-01 1.2417024632500498e-01 2.3252975841013931e-01  4.5923299721629757e-01 1.2417024629922949e-01 2.3252975844641507e-01  4.5923299724308997e-01 1.2417024613849427e-01 2.3252975862335165e-01  4.5923299725950073e-01 1.2417024598845580e-01 2.3252975874751822e-01  4.5923299727543571e-01 1.2417024575665316e-01 2.3252975889381447e-01  4.5923299728593842e-01 1.2417024540003350e-01 2.3252975905027118e-01  4.5923299728058004e-01 1.2417024486223294e-01 2.3252975918110469e-01  4.5923299724018746e-01 1.2417024407023391e-01 2.3252975921060051e-01  4.5923299713243826e-01 1.2417024293312355e-01 2.3252975900024944e-01  4.5923299690539593e-01 1.2417024134446868e-01 2.3252975831352288e-01  4.5923299647357857e-01 1.2417023917892175e-01 2.3252975674270024e-01  4.5923299568171350e-01 1.2417023627333899e-01 2.3252975352090377e-01  4.5923299437861509e-01 1.2417023260692404e-01 2.3252974785012498e-01  4.5923299229070580e-01 1.2417022820357813e-01 2.3252973825560372e-01  4.5923298435515658e-01 1.2417021835075830e-01 2.3252969927106715e-01  4.5923297507245420e-01 1.2417021200008410e-01 2.3252965165045117e-01  4.5923295984328089e-01 1.2417020684951004e-01 2.3252957134062111e-01  4.5923293569249779e-01 1.2417020659183925e-01 2.3252944056865618e-01  4.5923289910698134e-01 1.2417021681895987e-01 2.3252923770699160e-01  4.5923284618920329e-01 1.2417024555671832e-01 2.3252893779554692e-01  4.5923277224151593e-01 1.2417030323783131e-01 2.3252851026365851e-01  4.5923260437995062e-01 1.2417046978990418e-01 2.3252752190842638e-01  4.5923255665784873e-01 1.2417052588787575e-01 2.3252723627807528e-01  4.5923254335392016e-01 1.2417053938103459e-01 2.3252715751089167e-01  4.5923255043337041e-01 1.2417052832006568e-01 2.3252720088096257e-01  4.5923257761478770e-01 1.2417048931580429e-01 2.3252736665210005e-01  4.5923261427250528e-01 1.2417043715462849e-01 2.3252759011953428e-01  4.5923264854625567e-01 1.2417038807703182e-01 2.3252779925427677e-01  4.5923263230047950e-01 1.2417041516336501e-01 2.3252769801575693e-01  4.5923250677886412e-01 1.2417062267509796e-01 2.3252691671696252e-01  4.5923223370615296e-01 1.2417111432782534e-01 2.3252519441753577e-01  4.5923172856148464e-01 1.2417212177833073e-01 2.3252195285469196e-01  4.5923082843561397e-01 1.2417413099434348e-01 2.3251605385090529e-01  4.5922926973808648e-01 1.2417801594964463e-01 2.3250560322849176e-01  4.5922657482454271e-01 1.2418550337235146e-01 2.3248708205676996e-01  4.5922183788323934e-01 1.2420013038659515e-01 2.3245365856899242e-01  4.5921288770808472e-01 1.2423088878122465e-01 2.3238865025036026e-01  4.5915523745904324e-01 1.2446944417948907e-01 2.3194590031322951e-01  4.5911829123453446e-01 1.2465165898751335e-01 2.3164489064128282e-01  4.5907449289390845e-01 1.2489986407201854e-01 2.3126936019484157e-01  4.5902573452152234e-01 1.2521583372135930e-01 2.3082858334953196e-01  4.5897739246591435e-01 1.2557260614065854e-01 2.3036696998559936e-01  4.5891479351169523e-01 1.2616272794192324e-01 2.2969811180892913e-01  4.5885280626060082e-01 1.2688368528674485e-01 2.2896097596290690e-01  4.5875619027601794e-01 1.2820832868188001e-01 2.2770296490898886e-01  4.5841343146560282e-01 1.3576652034241662e-01 2.2169344239162350e-01  4.5833263844438354e-01 1.4111686960147188e-01 2.1835486143628813e-01  4.5837043752411788e-01 1.4782759051706382e-01 2.1495928637238043e-01  4.5857796464320522e-01 1.5645264432667727e-01 2.1149539991644034e-01  4.5903085872869825e-01 1.6761160478683979e-01 2.0804067732478243e-01  4.5982216762931688e-01 1.8202443916378766e-01 2.0468582372927141e-01  4.6109091676579234e-01 2.0088594943235571e-01 2.0146846547250627e-01  4.6572367080571125e-01 2.5742896641926832e-01 1.9539041293307513e-01  4.6797801212189938e-01 2.8140934897908382e-01 1.9390172714951215e-01  4.7016810414287918e-01 3.0266708457913744e-01 1.9338730094044859e-01  4.7218754005111579e-01 3.2058740673131814e-01 1.9374445293971493e-01  4.7538118760376624e-01 3.4442174062495556e-01 1.9678145367196598e-01  4.7869914081404563e-01 3.6613389653903206e-01 2.0145525049209853e-01  4.8317927595472199e-01 3.9374786471512913e-01 2.0821173162950998e-01  4.8865227677665218e-01 4.2533063547270661e-01 2.1682244760117908e-01  4.9487462965187434e-01 4.5865196197441999e-01 2.2696329504630092e-01  5.0165724501807796e-01 4.9207235069384664e-01 2.3831734634193052e-01  5.0875207253590382e-01 5.2394265595865763e-01 2.5049503728583389e-01  5.1586597875103724e-01 5.5282404747788416e-01 2.6305383282254913e-01  5.2265134746416475e-01 5.7755998280324927e-01 2.7539781977370686e-01  5.3455750647162814e-01 6.1389871512321725e-01 2.9834987448753619e-01  5.4077613731536534e-01 6.2936599627651346e-01 3.1114810106021246e-01  5.4648656761403658e-01 6.4176364309974587e-01 3.2339628513512886e-01  5.5139001485839878e-01 6.5103561828069179e-01 3.3433741799586580e-01  5.5529148336816170e-01 6.5757334672717216e-01 3.4335170575604879e-01  5.5803914448522363e-01 6.6177695983876261e-01 3.4988247159364522e-01  5.5956567626082199e-01 6.6411602326334318e-01 3.5352452551771968e-01  5.5984741747975675e-01 6.6495320769545430e-01 3.5398720586933019e-01  5.5891093390978874e-01 6.6452548095274222e-01 3.5113531936847137e-01  5.5680417876959054e-01 6.6288062183189289e-01 3.4497458991803115e-01  5.5362918614027701e-01 6.5994132423568341e-01 3.3573876444888595e-01  5.4951625382293001e-01 6.5550784676543694e-01 3.2383301999135122e-01  5.4457489284272165e-01 6.4920902840728767e-01 3.0971067824394893e-01  5.3901432491496770e-01 6.4076582947497052e-01 2.9410709220489356e-01  5.3298916746504466e-01 6.2988586986524331e-01 2.7765596287710076e-01  5.2078596599610649e-01 6.0200024751737702e-01 2.4590808837682931e-01  5.1517983580822624e-01 5.8633105664619822e-01 2.3207885658241126e-01  5.0997685079529276e-01 5.7012931472291739e-01 2.1965612062141449e-01  5.0530909303833260e-01 5.5410266362995519e-01 2.0885451038975267e-01  5.0128747119373140e-01 5.3921018920185571e-01 1.9975456010650136e-01  4.9795208353454240e-01 5.2613314990524518e-01 1.9228086432857397e-01  4.9532729109351586e-01 5.1549243379339682e-01 1.8629985535129132e-01  4.9262781862056793e-01 5.0555192752187694e-01 1.7871806619687974e-01  4.9302258491108775e-01 5.0857392960658265e-01 1.7828015197261229e-01  4.9406359037060493e-01 5.1470081854758609e-01 1.7896550664337971e-01  4.9554536629415141e-01 5.2294365919528385e-01 1.8034863552643701e-01  4.9732121270204305e-01 5.3252603449012159e-01 1.8217113394165724e-01  4.9927170381374436e-01 5.4278327495322420e-01 1.8425967031562748e-01  5.0127992824886103e-01 5.5307236120120917e-01 1.8647419504607110e-01  5.0319857885169317e-01 5.6263570898665438e-01 1.8865284833767534e-01  5.0605482080113173e-01 5.7621230158611081e-01 1.9207951144897581e-01  5.0819368749012650e-01 5.8586227928143497e-01 1.9477380095400712e-01  5.1096217175187264e-01 5.9785004996189262e-01 1.9835250592368278e-01  5.1917174045823222e-01 6.3049375734567914e-01 2.0951374756743213e-01  5.2296836082425580e-01 6.4404402302291452e-01 2.1503485566846620e-01  5.2662013337503732e-01 6.5600692596477395e-01 2.2064420364551782e-01  5.3025758415072177e-01 6.6686134237757033e-01 2.2657521845014311e-01  5.3394823777579170e-01 6.7675468691052554e-01 2.3301759520138859e-01  5.3774225402393794e-01 6.8576203406656355e-01 2.4011540420952904e-01  5.4176626056554056e-01 6.9402908715121014e-01 2.4826414280637588e-01  5.5153841947390625e-01 7.0875574887969872e-01 2.7139309587150756e-01  5.5491233914738625e-01 7.1175878059565456e-01 2.8100084652620172e-01  5.5759628143405870e-01 7.1300767138969579e-01 2.8970210324062590e-01  5.5975804257292117e-01 7.1298797606962439e-01 2.9778228625707071e-01  5.6147436992689781e-01 7.1200867477055130e-01 3.0529767650548678e-01  5.6279784091839680e-01 7.1031742738820658e-01 3.1222680318538859e-01  5.6377161838133172e-01 7.0812516907197587e-01 3.1851570936565338e-01  5.6444155461654566e-01 7.0563063048374830e-01 3.2410576099767330e-01  5.6486241558782613e-01 7.0302965767588832e-01 3.2895346933264430e-01  5.6508811730078579e-01 7.0049565009237613e-01 3.3302917466857684e-01  5.6517662965852877e-01 6.9819015035315501e-01 3.3632746888009402e-01  5.6518004956572399e-01 6.9624741493539477e-01 3.3885619684198282e-01  5.6514556019081186e-01 6.9477888375414731e-01 3.4063631589821336e-01  5.6510973948460663e-01 6.9386714377236813e-01 3.4169013084530775e-01  5.6511390698056152e-01 6.9385689836305553e-01 3.4172226305632603e-01  5.6516759088309609e-01 6.9476528738573617e-01 3.4075004374564100e-01  5.6523930274954204e-01 6.9621409275100665e-01 3.3915080330198921e-01  5.6530583850164373e-01 6.9813597390756232e-01 3.3692907022679180e-01  5.6533913469371644e-01 7.0042365595124167e-01 3.3412500523684907e-01  5.6519989944210136e-01 7.0480267879932257e-01 3.2806187479179477e-01  5.6532105807637811e-01 7.0276133191901369e-01 3.3111896014367442e-01  5.6538438497984411e-01 7.0145196335086624e-01 3.3292052400848310e-01  5.6538735988616373e-01 7.0076310903601224e-01 3.3398226853404378e-01  5.6516823829179430e-01 7.0177523599316427e-01 3.3379487365058280e-01  5.6553973992256368e-01 6.9935437360975838e-01 3.3514939153995421e-01  5.6537287497378119e-01 7.0104232883909012e-01 3.3365427559486749e-01  5.6536358717366253e-01 7.0191390568438994e-01 3.3231988469623047e-01  5.6422898587848813e-01 7.1328853938477565e-01 3.1389271686983905e-01  5.6349208135841311e-01 7.1672258713510528e-01 3.0698693025501306e-01  5.6259324521114051e-01 7.1952261954217356e-01 3.0033313794907496e-01  5.6152151696782493e-01 7.2178309057643075e-01 2.9375987969484779e-01  5.6028090914846795e-01 7.2351193627865573e-01 2.8725066078557010e-01  5.5888673058472238e-01 7.2470755578304602e-01 2.8083614675143637e-01  5.5735405049303688e-01 7.2536984386410819e-01 2.7454026223086786e-01  5.5569164782449554e-01 7.2550295445731372e-01 2.6835735088247714e-01  5.5387589777300639e-01 7.2511148174254425e-01 2.6216164616308857e-01  5.4969528120154654e-01 7.2267927824988565e-01 2.4936414613894473e-01  5.4834058739958080e-01 7.2152717067968586e-01 2.4552268577073805e-01  5.4734022207088506e-01 7.2058648150090943e-01 2.4273363914891058e-01  5.4664563413757350e-01 7.1990767367522102e-01 2.4078461014357203e-01  5.4622090198955320e-01 7.1952108235482126e-01 2.3952611919364214e-01  5.4604461037312890e-01 7.1944064088910287e-01 2.3887417514391390e-01  5.4608894428998811e-01 7.1965367765991373e-01 2.3874237745097501e-01  5.4632222992005541e-01 7.2012675221900013e-01 2.3904692152424561e-01  5.4670690049078652e-01 7.2080667272381160e-01 2.3970002257052017e-01  5.4720216771883201e-01 7.2162945686292490e-01 2.4061293938827755e-01  5.4775568577875888e-01 7.2250982548272558e-01 2.4167821278628915e-01  5.4830047105429136e-01 7.2334166908223929e-01 2.4276051154315870e-01  5.4912014174732993e-01 7.2448540576315135e-01 2.4448425690353059e-01  5.4969996088777306e-01 7.2520221497493031e-01 2.4578154740429781e-01  5.5041864598053547e-01 7.2603612108988214e-01 2.4742882291551602e-01  5.5139202785359354e-01 7.2712931766864897e-01 2.4966777556669531e-01  5.5549317483213323e-01 7.3236525420056275e-01 2.5827719302118723e-01  5.5647759670197205e-01 7.3373858280779558e-01 2.6017043705147191e-01  5.5696426047835801e-01 7.3442295485706799e-01 2.6108288249504735e-01  5.5697459228094270e-01 7.3443728909341977e-01 2.6110218525340939e-01  5.5658738258587870e-01 7.3388361660172696e-01 2.6039118496730040e-01  5.5608130414936818e-01 7.3312561695272482e-01 2.5949227479305992e-01  5.5568127949563384e-01 7.3244127096434697e-01 2.5887050939169193e-01  5.5598356167668239e-01 7.3235951959379419e-01 2.5995004577141895e-01  5.5683834751852812e-01 7.3331920819954133e-01 2.6178806686101852e-01  5.5793360224287936e-01 7.3466257680523406e-01 2.6402240422040191e-01  5.5883302886983344e-01 7.3578284759330437e-01 2.6582593928468462e-01  5.5914467782567534e-01 7.3616843641218810e-01 2.6644908089726771e-01  5.5884894233126126e-01 7.3578818850941585e-01 2.6586548585882769e-01  5.5800649590016183e-01 7.3468843797130046e-01 2.6420402080546229e-01  5.5640217470895936e-01 7.3248948329272900e-01 2.6107453241420181e-01  5.4926221880137971e-01 7.2128664202999015e-01 2.4777304454853277e-01  5.4676681109736491e-01 7.1683692146603162e-01 2.4332207291237071e-01  5.4475836471711381e-01 7.1301939322399044e-01 2.3978429632329595e-01  5.4305776023874130e-01 7.0961171752545749e-01 2.3682603534521990e-01  5.4171707048666928e-01 7.0679522843704967e-01 2.3453234807715198e-01  5.4005304988795466e-01 7.0299443721367683e-01 2.3182091285585513e-01  5.3850134604722932e-01 6.9916800772908450e-01 2.2941547533794407e-01  5.3653694049