<?xml version="1.0"?>
<VTKFile type="UnstructuredGrid"  version="0.1"  >
<UnstructuredGrid>
<Piece  NumberOfPoints="7288" NumberOfCells="14083">
<Points>
<DataArray  type="Float64"  NumberOfComponents="3"  format="ascii">239.8 188 0  250.2 180 0  258.2 172.4 0  257 169.4 0  259.9 157.4 0  258.7 150.3 0  261 143.5 0  251.7 144.4 0  250 138.7 0  247 138.1 0  245.2 130.8 0  247.3 126.4 0  242.7 118.6 0  231.2 107.7 0  226 102.4 0  226.5 93.90000000000001 0  224.5 91.19999999999999 0  224.5 84.09999999999999 0  234.5 73.80000000000001 0  228.4 68.90000000000001 0  230 70 0  233.4 68 0  222.7 61.5 0  220.6 45.5 0  223.4 49.40000000000001 0  224 47 0  221.8 43.09999999999999 0  221 38.40000000000001 0  219.5 38.5 0  219.4 41.69999999999999 0  217.1 36.90000000000001 0  209.7 36 0  209.5 31.69999999999999 0  205.1 29.90000000000001 0  201.5 30.40000000000001 0  199.2 38.69999999999999 0  201.8 41.40000000000001 0  194.8 53.80000000000001 0  196.1 57.69999999999999 0  193 59 0  191.4 66.09999999999999 0  193.5 66.5 0  194.1 64.40000000000001 0  195.6 64.69999999999999 0  195.4 72.40000000000001 0  199.5 77.30000000000001 0  197.7 86.90000000000001 0  200.6 87.5 0  201.5 91 0  198 94.80000000000001 0  198.6 100 0  197.3 105.4 0  198 109.5 0  197 112.7 0  198.3 116.1 0  201.3 122 0  207.2 121 0  208.1 126.7 0  205.6 127.9 0  209.1 134.9 0  210.9 144.4 0  210.1 147.9 0  213 148.4 0  215.4 149.3 0  215.1 152.8 0  219.9 159.7 0  220.3 163.2 0  218.7 164.9 0  219.9 166.7 0  221.9 169.7 0  220 170.3 0  224.9 174.7 0  229.8 177.4 0  229.7 181 0  228 172.9 0  239 178 0  240.4 180 0  239 181.5 0  241.2 185.9 0  242.95 187.99 0  240.5875 187.9975 0  241.375 187.995 0  242.1625 187.9925 0  243.6090909090879 187.2636363636397 0  244.2681818181765 186.5372727272785 0  244.9272727272692 185.810909090913 0  245.5863636363531 185.0845454545571 0  246.245454545445 184.3581818181923 0  246.9045454545351 183.6318181818295 0  247.5636363636303 182.9054545454612 0  248.2227272727197 182.1790909090992 0  248.8818181818179 181.4527272727275 0  249.5409090909066 180.7263636363664 0  250.8666666666961 179.3666666666387 0  251.5333333334033 178.7333333332668 0  252.2000000000994 178.0999999999055 0  252.8666666668011 177.466666666539 0  253.5333333335083 176.8333333331671 0  254.2000000002044 176.1999999998058 0  254.8666666669005 175.5666666664445 0  255.5333333336077 174.9333333330727 0  256.2000000002685 174.2999999997449 0  256.8666666668457 173.6666666664966 0  257.5333333334283 173.033333333243 0  257.9000000000077 171.6500000000191 0  257.6000000000015 170.9000000000038 0  257.2999999999954 170.1499999999885 0  257.2230769230778 168.4769230769195 0  257.4461538461543 167.5538461538442 0  257.6692307692309 166.6307692307688 0  257.8923076923074 165.7076923076935 0  258.115384615384 164.7846153846181 0  258.3384615384605 163.8615384615427 0  258.5615384615395 162.9384615384572 0  258.784615384616 162.0153846153819 0  259.0076923076926 161.0923076923065 0  259.2307692307691 160.1692307692311 0  259.4538461538457 159.2461538461558 0  259.6769230769222 158.3230769230804 0  259.750000000001 156.512500000006 0  259.6000000000014 155.6250000000082 0  259.4500000000029 154.7375000000176 0  259.3000000000018 153.8500000000108 0  259.1500000000007 152.962500000004 0  259.0000000000004 152.0750000000026 0  258.849999999999 151.187499999994 0  258.9875000000052 149.4499999999846 0  259.275000000002 148.5999999999941 0  259.5624999999954 147.7500000000135 0  259.849999999995 146.900000000015 0  260.1374999999945 146.0500000000164 0  260.4249999999913 145.2000000000259 0  260.7124999999948 144.3500000000154 0  260.0700000000398 143.5899999999961 0  259.1400000000573 143.6799999999944 0  258.2100000000351 143.7699999999966 0  257.2800000000262 143.8599999999975 0  256.350000000011 143.9499999999989 0  255.4199999999881 144.0400000000011 0  254.4899999999726 144.1300000000026 0  253.5599999999944 144.2200000000005 0  252.6300000000009 144.3099999999999 0  251.4166666666658 143.4499999999971 0  251.1333333333388 142.5000000000182 0  250.8500000000015 141.5500000000051 0  250.5666666666612 140.5999999999818 0  250.2833333333342 139.6500000000029 0  249.2500000000005 138.5500000000001 0  248.5000000000011 138.4000000000002 0  247.7499999999995 138.2499999999999 0  246.7750000000005 137.1875000000023 0  246.5500000000021 136.2750000000085 0  246.3250000000036 135.3625000000147 0  246.1000000000042 134.450000000017 0  245.8750000000022 133.5375000000088 0  245.650000000003 132.6250000000124 0  245.4250000000046 131.7125000000187 0  245.619999999996 129.9200000000084 0  246.0399999999992 129.0400000000017 0  246.4599999999987 128.1600000000028 0  246.8800000000001 127.2799999999997 0  246.8399999999988 125.6199999999979 0  246.3799999999984 124.8399999999973 0  245.9199999999991 124.0599999999985 0  245.4600000000036 123.2800000000062 0  245.0000000000049 122.5000000000082 0  244.5400000000036 121.7200000000062 0  244.0800000000033 120.9400000000056 0  243.6200000000016 120.1600000000027 0  243.1600000000012 119.3800000000021 0  241.9812499999996 117.9187499999997 0  241.2625000000007 117.2375000000007 0  240.5437500000017 116.5562500000017 0  239.8250000000041 115.875000000004 0  239.1062500000066 115.1937500000063 0  238.3875000000076 114.5125000000072 0  237.6687500000087 113.8312500000082 0  236.9500000000083 113.1500000000079 0  236.231250000008 112.4687500000076 0  235.512500000009 111.7875000000085 0  234.7937500000045 111.1062500000043 0  234.0750000000042 110.4250000000039 0  233.3562500000066 109.7437500000062 0  232.6375000000021 109.062500000002 0  231.9187500000031 108.381250000003 0  230.5500000000004 107.0375000000004 0  229.9000000000021 106.3750000000021 0  229.2500000000038 105.7125000000039 0  228.6000000000041 105.0500000000042 0  227.9500000000018 104.3875000000018 0  227.2999999999952 103.7249999999951 0  226.6500000000024 103.0625000000024 0  226.0555555555555 101.4555555555556 0  226.1111111111111 100.5111111111111 0  226.1666666666667 99.56666666666668 0  226.2222222222222 98.62222222222223 0  226.2777777777778 97.67777777777778 0  226.3333333333333 96.73333333333335 0  226.3888888888889 95.78888888888889 0  226.4444444444445 94.84444444444446 0  226 93.22499999999999 0  225.5000000000026 92.55000000000358 0  225.0000000000026 91.87500000000358 0  224.5 90.31250000000068 0  224.5 89.4250000000097 0  224.5 88.53750000001317 0  224.5 87.65000000001388 0  224.5 86.76250000001457 0  224.5 85.87500000001248 0  224.5 84.9874999999993 0  225.1666666666659 83.41333333333409 0  225.8333333333319 82.72666666666818 0  226.4999999999978 82.04000000000228 0  227.1666666666649 81.35333333333514 0  227.8333333333301 80.66666666667 0  228.4999999999942 79.980000000006 0  229.1666666666601 79.2933333333401 0  229.8333333333316 78.60666666666847 0  230.4999999999975 77.92000000000257 0  231.1666666666644 77.23333333333572 0  231.8333333333295 76.54666666667057 0  232.4999999999972 75.86000000000287 0  233.1666666666681 75.17333333333181 0  233.8333333333368 74.48666666666306 0  233.7499999999995 73.16666666666629 0  233.0000000000018 72.53333333333488 0  232.2500000000014 71.90000000000116 0  231.5000000000009 71.26666666666743 0  230.7500000000005 70.63333333333372 0  229.233333333333 68.75000000000006 0  230.0666666666665 68.60000000000004 0  230.8999999999995 68.45000000000009 0  231.7333333333325 68.30000000000015 0  232.566666666667 68.14999999999995 0  232.5499999999897 68.50000000000607 0  231.7 69 0  230.8500000000103 69.49999999999393 0  227.8300000000008 68.16000000000106 0  227.2600000000064 67.42000000000837 0  226.6900000000077 66.68000000001001 0  226.1200000000024 65.94000000000314 0  225.5500000000108 65.20000000001409 0  224.9800000000098 64.46000000001268 0  224.4100000000007 63.72000000000098 0  223.8399999999971 62.97999999999621 0  223.2699999999993 62.23999999999915 0  222.753846153846 60.56923076923239 0  222.8076923076921 59.63846153846478 0  222.8615384615381 58.70769230769827 0  222.9153846153842 57.77692307693071 0  222.9692307692302 56.84615384616315 0  223.0230769230761 55.91538461539836 0  223.0769230769224 54.98461538462665 0  223.1307692307688 54.05384615385345 0  223.184615384615 53.12307692308312 0  223.2384615384611 52.19230769231556 0  223.2923076923071 51.26153846154906 0  223.3461538461533 50.33076923077847 0  222.8400000000024 48.62000000000327 0  222.2800000000047 47.84000000000661 0  221.7200000000005 47.06000000000071 0  221.1600000000003 46.28000000000039 0  221.4500000000116 45.87500000000512 0  222.3 46.25 0  223.1499999999884 46.62499999999488 0  223.5600000000055 46.22000000000981 0  223.1199999999987 45.43999999999767 0  222.6800000000061 44.66000000001075 0  222.2399999999969 43.8799999999944 0  221.6400000000004 42.16000000000253 0  221.4800000000009 41.22000000000548 0  221.3200000000014 40.28000000000801 0  221.1600000000009 39.34000000000556 0  220.25 38.45 0  219.4749999999999 39.30000000000165 0  219.45 40.09999999999999 0  219.425 40.90000000000112 0  219.0166666666641 40.89999999999463 0  218.6333333333375 40.10000000000875 0  218.2500000000016 39.30000000000339 0  217.8666666666635 38.49999999999351 0  217.483333333337 37.70000000000762 0  216.1750000000165 36.78750000000201 0  215.2500000000275 36.67500000000335 0  214.3250000000385 36.56250000000469 0  213.4000000000277 36.45000000000337 0  212.4750000000059 36.33750000000072 0  211.5499999999838 36.22499999999803 0  210.6249999999835 36.11249999999799 0  209.6600000000001 35.14000000000318 0  209.6200000000001 34.28000000000268 0  209.5800000000001 33.42000000000284 0  209.5399999999998 32.55999999999681 0  208.6200000000117 31.34000000000476 0  207.7400000000138 30.98000000000564 0  206.8600000000162 30.62000000000662 0  205.9800000000174 30.26000000000711 0  204.2000000000054 30.02499999999925 0  203.2999999999946 30.15000000000076 0  202.3999999999945 30.27500000000076 0  201.2444444444438 31.32222222222468 0  200.9888888888895 32.24444444
[...]
<PointData  Vectors="f_12"> 
<DataArray  type="Float64"  Name="f_12"  NumberOfComponents="3" format="ascii">5.7276684633541097e-01 1.7986740160205655e-01 8.2052102401947580e-01  5.7180436942247870e-01 1.7759324510761851e-01 8.1830373618699559e-01  5.7067884081152842e-01 1.7497022403662657e-01 8.1563772658116696e-01  5.7017386841447881e-01 1.7381068410017067e-01 8.1441328128020329e-01  5.6687258620494818e-01 1.6640586217201073e-01 8.0603761619378722e-01  5.6484758463764051e-01 1.6203318507101466e-01 8.0056972246789238e-01  5.6422002106255242e-01 1.6069473849307250e-01 7.9882722391008121e-01  5.6145274024663339e-01 1.5503997343946269e-01 7.9082971548244585e-01  5.5758990677140208e-01 1.4743997982326851e-01 7.7899088536002725e-01  5.5569168951001069e-01 1.4390187437081201e-01 7.7280367919324122e-01  5.4921362116755745e-01 1.3247293267250435e-01 7.5031485604506454e-01  5.4720994555776925e-01 1.2915667839545428e-01 7.4290846525671417e-01  5.4441728905619580e-01 1.2477067197843711e-01 7.3219990652037703e-01  5.3743623758492465e-01 1.1475431019241601e-01 7.0368127451342488e-01  5.3325757570257049e-01 1.0937673382924343e-01 6.8543858122054135e-01  5.2987965887413901e-01 1.0532979427977326e-01 6.7010428853482673e-01  5.2896214532594310e-01 1.0428998118926920e-01 6.6583690542195184e-01  5.2675978436094617e-01 1.0187149302088933e-01 6.5544792730869772e-01  5.2541034216354965e-01 1.0044665698838222e-01 6.4897561285875638e-01  5.2531240308634986e-01 1.0034524788778813e-01 6.4850243501589278e-01  5.2533955007793554e-01 1.0037335824087341e-01 6.4863362442603245e-01  5.2530754364483312e-01 1.0034028664757336e-01 6.4847893287868674e-01  5.2497897837753449e-01 1.0000103395378815e-01 6.4688852184418744e-01  5.2477684124966750e-01 9.9791291976070090e-02 6.4590800380670510e-01  5.2478158420149468e-01 9.9796948771897195e-02 6.4593097638445685e-01  5.2477504006824405e-01 9.9789291352617354e-02 6.4589926875001524e-01  5.2477716702409938e-01 9.9791383782318957e-02 6.4590960415244514e-01  5.2477751994193933e-01 9.9791573772138653e-02 6.4591133126285127e-01  5.2477753954468387e-01 9.9791593801663123e-02 6.4591142645605237e-01  5.2478024990885608e-01 9.9794382393463998e-02 6.4592458664423946e-01  5.2479393935230301e-01 9.9807896906105240e-02 6.4599109686737288e-01  5.2482227434521012e-01 9.9836179484824691e-02 6.4612870874440009e-01  5.2484111828640034e-01 9.9854986966455700e-02 6.4622021085222880e-01  5.2484604996481288e-01 9.9859918047795912e-02 6.4624415428325399e-01  5.2484657894648867e-01 9.9860449904125848e-02 6.4624672220604573e-01  5.2482950959630081e-01 9.9843443270975302e-02 6.4616384155935436e-01  5.2480986484932279e-01 9.9823966966717831e-02 6.4606842979718926e-01  5.2478509013665098e-01 9.9801194042305835e-02 6.4594795276371264e-01  5.2482511205816140e-01 9.9842645331255947e-02 6.4614222685676237e-01  5.2485028207485118e-01 9.9868673820715848e-02 6.4626439003099967e-01  5.2503020007592316e-01 1.0005356316194712e-01 6.4713691224193881e-01  5.2502964356722592e-01 1.0005299264486636e-01 6.4713420390264698e-01  5.2490943034236603e-01 9.9929458183022707e-02 6.4655135141018028e-01  5.2495136189844860e-01 9.9972537237925332e-02 6.4675468557256865e-01  5.2520022047424664e-01 1.0022875391867182e-01 6.4796003819410775e-01  5.2581525985907307e-01 1.0086854334523296e-01 6.5092614123234604e-01  5.2691440440427950e-01 1.0203149954293234e-01 6.5618819823920205e-01  5.2723392164883254e-01 1.0237838517236050e-01 6.5770423197266925e-01  5.2843290675399412e-01 1.0369480924021469e-01 6.6335898205252342e-01  5.2953904783050265e-01 1.0493268027695674e-01 6.6852527705980302e-01  5.3051679810933483e-01 1.0605950068108180e-01 6.7303694343093168e-01  5.3172641631175199e-01 1.0748315437787406e-01 6.7856120148312782e-01  5.3262236855002543e-01 1.0856354778809751e-01 6.8260623828207134e-01  5.3321757100141376e-01 1.0929054896946637e-01 6.8527500020984422e-01  5.3375059972466954e-01 1.0995197315861595e-01 6.8764896988791324e-01  5.3466467889447244e-01 1.1110420273006544e-01 6.9169114545099120e-01  5.3665017235937928e-01 1.1371793616481868e-01 7.0029783828366599e-01  5.4113831521183464e-01 1.1991594808800109e-01 7.1910837683402662e-01  5.4191807851095986e-01 1.2103192127341642e-01 7.2228728066831982e-01  5.4483502139851969e-01 1.2543439204555848e-01 7.3382041696312217e-01  5.5002734777091045e-01 1.3381334117743898e-01 7.5328006022650584e-01  5.5079752176987851e-01 1.3511322651717217e-01 7.5605075194651172e-01  5.5133157463614213e-01 1.3604301214769698e-01 7.5793886858287929e-01  5.5312374736017478e-01 1.3920915527685671e-01 7.6416525500394994e-01  5.5540217488957910e-01 1.4332235301856711e-01 7.7187745114364426e-01  5.6048039199421262e-01 1.5308382832060793e-01 7.8793056638023085e-01  5.6310192131981240e-01 1.5839216109132048e-01 7.9565350119587985e-01  5.6383283913814264e-01 1.5990074042035676e-01 7.9774232352812324e-01  5.6428494283438924e-01 1.6084897171520018e-01 7.9900945048716931e-01  5.6513096027317056e-01 1.6264087780561146e-01 8.0135093318671191e-01  5.6491290123029836e-01 1.6217318604142508e-01 8.0075429642084284e-01  5.6640189825373688e-01 1.6537667072520493e-01 8.0479168757301511e-01  5.6903518018314514e-01 1.7121604863657203e-01 8.1160072948930528e-01  5.6934177796383756e-01 1.7190594685621544e-01 8.1236783092165343e-01  5.6714408112544101e-01 1.6701072328201622e-01 8.0674487371914161e-01  5.7060018265995271e-01 1.7479889508814864e-01 8.1544209998469541e-01  5.7177518415437356e-01 1.7753160037896004e-01 8.1823135798808733e-01  5.7218608662164705e-01 1.7849453975017185e-01 8.1918996512666276e-01  5.7266584295013934e-01 1.7962782896251880e-01 8.2029097906450987e-01  5.7272719903617819e-01 1.7977323509778040e-01 8.2043086065600934e-01  5.7276174645552003e-01 1.7985529241657053e-01 8.2050942758506540e-01  5.7275074957844241e-01 1.7982917551672326e-01 8.2048442349445272e-01  5.7273822167155175e-01 1.7979941605372510e-01 8.2045593588556109e-01  5.7269926926222248e-01 1.7970693831999224e-01 8.2036726106502667e-01  5.7264930020357141e-01 1.7958837291556548e-01 8.2025335877368177e-01  5.7258474864222864e-01 1.7943528855177482e-01 8.2010599458503808e-01  5.7250910970981495e-01 1.7925603660707223e-01 8.1993298756106103e-01  5.7242432309419167e-01 1.7905527183580458e-01 8.1973863689867388e-01  5.7233300055462866e-01 1.7883923216528141e-01 8.1952879285165925e-01  5.7223517484338005e-01 1.7860805795533019e-01 8.1930342187185234e-01  5.7213289592703254e-01 1.7836663556412016e-01 8.1906715407991759e-01  5.7202783502276944e-01 1.7811895364127195e-01 8.1882376161934756e-01  5.7191847954667230e-01 1.7786150461672223e-01 8.1856967106829515e-01  5.7169752364207005e-01 1.7734240434624790e-01 8.1805401517883169e-01  5.7159363544388964e-01 1.7709885280117019e-01 8.1781051831678586e-01  5.7148926286991497e-01 1.7685453444162719e-01 8.1756520004366473e-01  5.7138433090639218e-01 1.7660927678005198e-01 8.1731788805773220e-01  5.7127950770067559e-01 1.7636464680821218e-01 8.1707014868204175e-01  5.7117556687160131e-01 1.7612243862924606e-01 8.1682383539733161e-01  5.7107231786952040e-01 1.7588221237283147e-01 8.1657851189784780e-01  5.7097154940882644e-01 1.7564810957142749e-01 8.1633847046179298e-01  5.7087597496081610e-01 1.7542640144985422e-01 8.1611024029304080e-01  5.7078909804082711e-01 1.7522515575306791e-01 8.1590231330727203e-01  5.7071805802407249e-01 1.7506082251759314e-01 8.1573194273377048e-01  5.7063567692763772e-01 1.7487082252115202e-01 8.1553366436245811e-01  5.7054049916892480e-01 1.7465188182767197e-01 8.1530375166324154e-01  5.7039601840612064e-01 1.7432001419231841e-01 8.1495369442567578e-01  5.6988387595300249e-01 1.7314740529065265e-01 8.1370411793548447e-01  5.6962141912638120e-01 1.7254897231161787e-01 8.1305814559795386e-01  5.6936215547323754e-01 1.7195979794397215e-01 8.1241581044088951e-01  5.6910170442997488e-01 1.7136994951228923e-01 8.1176631170039248e-01  5.6883953287316069e-01 1.7077827021999817e-01 8.1110826754580545e-01  5.6857623480885644e-01 1.7018613562269466e-01 8.1044313067523477e-01  5.6831300767653070e-01 1.6959625531628836e-01 8.0977391666279319e-01  5.6805116666078126e-01 1.6901153745192501e-01 8.0910407508605597e-01  5.6779292878887511e-01 1.6843691598340907e-01 8.0843934580995902e-01  5.6753930765962202e-01 1.6787456426318959e-01 8.0778257369855955e-01  5.6729499937275485e-01 1.6733471391423196e-01 8.0714630008785959e-01  5.6706533803856352e-01 1.6682894592168046e-01 8.0654491140938112e-01  5.6668268864812144e-01 1.6599066607301996e-01 8.0553509378279042e-01  5.6645433910331311e-01 1.6549298787466396e-01 8.0492788311482799e-01  5.6620587126396305e-01 1.6495324349112672e-01 8.0426370632406352e-01  5.6594579081978391e-01 1.6439020709303420e-01 8.0356466846257113e-01  5.6567893586279672e-01 1.6381453092416209e-01 8.0284329786689357e-01  5.6540906705771077e-01 1.6323436214780299e-01 8.0210955080062640e-01  5.6513578055480540e-01 1.6264881508947879e-01 8.0136222154991765e-01  5.6461762972329121e-01 1.6154265891620767e-01 7.9993446446182281e-01  5.6445829636044265e-01 1.6120338031648410e-01 7.9949239621079049e-01  5.6435218841089618e-01 1.6097749066220399e-01 7.9919698737961353e-01  5.6428176450434908e-01 1.6082750490851147e-01 7.9900038380026306e-01  5.6424144709527679e-01 1.6074140100804307e-01 7.9888754899982561e-01  5.6422312635926242e-01 1.6070197714185250e-01 7.9883611860302239e-01  5.6421903569689114e-01 1.6069284024500607e-01 7.9882452215602640e-01  5.6421263847239633e-01 1.6067943499748469e-01 7.9880662618268350e-01  5.6418125163028332e-01 1.6061420555432082e-01 7.9871892633441777e-01  5.6411545742765112e-01 1.6047737120109065e-01 7.9853473998611668e-01  5.6400808511591594e-01 1.6025423776737482e-01 7.9823338240930131e-01  5.6384861847877898e-01 1.5992341770995552e-01 7.9778414892311533e-01  5.6362738520460698e-01 1.5946572381007892e-01 7.9715782127686674e-01  5.6333211195436772e-01 1.5885732014271386e-01 7.9631629083371325e-01  5.6294029928068379e-01 1.5805427109170944e-01 7.9518990167554870e-01  5.6239378704894072e-01 1.5694156330851111e-01 7.9360118301550409e-01  5.6034106884170776e-01 1.5281444708858496e-01 7.8750559517403618e-01  5.5955395070953240e-01 1.5125436447002949e-01 7.8511554342647116e-01  5.5888027269397511e-01 1.4993264147801455e-01 7.8304073832360199e-01  5.5831096183407991e-01 1.4882600448000330e-01 7.8126651829285987e-01  5.5785788762041466e-01 1.4795237280881784e-01 7.7984118397152091e-01  5.5742375214236184e-01 1.4712632191037564e-01 7.7845746931729121e-01  5.5707061745100894e-01 1.4646310597164258e-01 7.7731739678604816e-01  5.5654176962842417e-01 1.4547651501065278e-01 7.7559610963095138e-01  5.5453979730262704e-01 1.4178928174554908e-01 7.6897277971358902e-01  5.5366290541926222e-01 1.4020092595710096e-01 7.6601279427605073e-01  5.5287555728581050e-01 1.3879259977362876e-01 7.6331746831811309e-01  5.5213531826456752e-01 1.3748473617933646e-01 7.6075039953475176e-01  5.5142376940019633e-01 1.3624266971948165e-01 7.5825255505607003e-01  5.5072579860467163e-01 1.3503834164908712e-01 7.5577422010015005e-01  5.5001822364726527e-01 1.3383103127837537e-01 7.5323411576506605e-01  5.4849727267116599e-01 1.3127513886214215e-01 7.4769148492545834e-01  5.4800677873919235e-01 1.3046194851858653e-01 7.4588043406460691e-01  5.4763545537873548e-01 1.2985096535320292e-01 7.4450020458681743e-01  5.4736312066441761e-01 1.2940571033145107e-01 7.4348281364269375e-01  5.4707708755757423e-01 1.2894267865095485e-01 7.4240792924052601e-01  5.4686123743544413e-01 1.2859667801911054e-01 7.4159248482654283e-01  5.4659957178732843e-01 1.2817920580909350e-01 7.4060084791077663e-01  5.4630637680568850e-01 1.2771371307715382e-01 7.3948578056228487e-01  5.4599578363314616e-01 1.2722316662849681e-01 7.3830002472742551e-01  5.4567351794634300e-01 1.2671693815560608e-01 7.3706469454972456e-01  5.4534555272862439e-01 1.2620462569824778e-01 7.3580224398554750e-01  5.4501877872226301e-01 1.2569706665448813e-01 7.3453911165614294e-01  5.4470182589530991e-01 1.2520757427597384e-01 7.3330884106534255e-01  5.4409841080010279e-01 1.2428440080434414e-01 7.3095134580747234e-01  5.4373338238883306e-01 1.2373147124862932e-01 7.2951539834565771e-01  5.4334610950920303e-01 1.2314876543490470e-01 7.2798471603529424e-01  5.4294105902694667e-01 1.2254370558525705e-01 7.2637548557421083e-01  5.4252274759624775e-01 1.2192339027520108e-01 7.2470491957744676e-01  5.4209402544947860e-01 1.2129248588862891e-01 7.2298355293827843e-01  5.4165596365357449e-01 1.2065292663568596e-01 7.2121498205299961e-01  5.4121010358400601e-01 1.2000725104748988e-01 7.1940488415105408e-01  5.4075821572425731e-01 1.1935822921792319e-01 7.1756006501211778e-01  5.4030016794778779e-01 1.1870595914063571e-01 7.1567945626607299e-01  5.3983670280328322e-01 1.1805164694406518e-01 7.1376583022264017e-01  5.3936888566976804e-01 1.1739692517148977e-01 7.1182336189085749e-01  5.3889497316268242e-01 1.1673963621552327e-01 7.0984431954821969e-01  5.3841732057753444e-01 1.1608338793397431e-01 7.0783793233824288e-01  5.3793207335072646e-01 1.1542291012003156e-01 7.0578793167079301e-01  5.3696615288145644e-01 1.1412641726918987e-01 7.0167272626448896e-01  5.3649765489040568e-01 1.1350652179246760e-01 6.9965989408507279e-01  5.3602567057550943e-01 1.1288777530379621e-01 6.9762124668663417e-01  5.3554504811544379e-01 1.1226412728910200e-01 6.9553325197835969e-01  5.3505295110809603e-01 1.1163196002099743e-01 6.9338331322223046e-01  5.3453744979753481e-01 1.1097663295116805e-01 6.9111783168524477e-01  5.3397110143141269e-01 1.1026452347029163e-01 6.8861328842807723e-01  5.3256047774204618e-01 1.0851861901794460e-01 6.8231821088201383e-01  5.3204790690623394e-01 1.0789404355250594e-01 6.8001067542630445e-01  5.3161216363654240e-01 1.0736832050481397e-01 6.7803865868206403e-01  5.3122569833964173e-01 1.0690635128148282e-01 6.7628153954181403e-01  5.3087745874632586e-01 1.0649356148546472e-01 6.7469186009071380e-01  5.3056393288321346e-01 1.0612478323627830e-01 6.7325557202663810e-01  5.3028543649773707e-01 1.0579951219498052e-01 6.7197579797210094e-01  5.3004814916077969e-01 1.0552414658642530e-01 6.7088246584307420e-01  5.2974293629425429e-01 1.0517338495348062e-01 6.6947090497731065e-01  5.2953970495102665e-01 1.0494203230421645e-01 6.6852756382839151e-01  5.2929059763604880e-01 1.0465995205077276e-01 6.6736865146508551e-01  5.2860488660820459e-01 1.0388980848330963e-01 6.6416647376853144e-01  5.2831071969043464e-01 1.0356227524234544e-01 6.6278722315545868e-01  5.2804233429269443e-01 1.0326529315831161e-01 6.6152534548157804e-01  5.2778824664352719e-01 1.0298583379595887e-01 6.6032753076827500e-01  5.2754295255841333e-01 1.0271767701098507e-01 6.5916819560715589e-01  5.2730142229894650e-01 1.0245518742410560e-01 6.5802376266114093e-01  5.2705482115109115e-01 1.0218867677482310e-01 6.5685249432119253e-01  5.2648369781387461e-01 1.0157617206222967e-01 6.5413071297175929e-01  5.2629024114110534e-01 1.0137020075640671e-01 6.5320583391140075e-01  5.2613295814392058e-01 1.0120346730256229e-01 6.5245252473944759e-01  5.2600005010865347e-01 1.0106312615776607e-01 6.5181496611782463e-01  5.2588599402692182e-01 1.0094310495675095e-01 6.5126712343468929e-01  5.2578757196722425e-01 1.0083984121510470e-01 6.5079385694597613e-01  5.2570288155463907e-01 1.0075121109358452e-01 6.5038624070662354e-01  5.2563062926820414e-01 1.0067576303675575e-01 6.5003821496940961e-01  5.2556966639691938e-01 1.0061222027363197e-01 6.4974437579729682e-01  5.2551934904520636e-01 1.0055985411824629e-01 6.4950171523357125e-01  5.2547899288540412e-01 1.0051790679596255e-01 6.4930700832188526e-01  5.2544830030529133e-01 1.0048603544494224e-01 6.4915887426963237e-01  5.2542690807883752e-01 1.0046383767431008e-01 6.4905560120744921e-01  5.2541435489844379e-01 1.0045081796596937e-01 6.4899498950565004e-01  5.2540934438151921e-01 1.0044562352283254e-01 6.4897079407768554e-01  5.2540495327129910e-01 1.0044107423775039e-01 6.4894958725842855e-01  5.2539673815253518e-01 1.0043256430528998e-01 6.4890990949176353e-01  5.2538456197569339e-01 1.0041995379017166e-01 6.4885109430615151e-01  5.2536710985008184e-01 1.0040188411761046e-01 6.4876678319901993e-01  5.2532353287486400e-01 1.0035677759748467e-01 6.4855622845417371e-01  5.2532241337080543e-01 1.0035563375541848e-01 6.4855081470465248e-01  5.2531685972251851e-01 1.0034990153638579e-01 6.4852396940483659e-01  5.2531210841430043e-01 1.0034499736183607e-01 6.4850100099246322e-01  5.2530901581432576e-01 1.0034180572738138e-01 6.4848605018970962e-01  5.2530931298781181e-01 1.0034211238022832e-01 6.4848748688556723e-01  5.2531353812854209e-01 1.0034647321798738e-01 6.4850791244325989e-01  5.2532111985608698e-01 1.0035430298701122e-01 6.4854455987640935e-01  5.2528249225430590e-01 1.0031429878403950e-01 6.4835784533485896e-01  5.2525286392396942e-01 1.0028365989873064e-01 6.4821458714520919e-01  5.2522229346465676e-01 1.0025206336611350e-01 6.4806673503416645e-01  5.2519091156763109e-01 1.0021964413844572e-01 6.4791491724771122e-01  5.2515885670923057e-01 1.0018654548738321e-01 6.4775979981408016e-01  5.2512630081183775e-01 1.0015294426372764e-01 6.4760221229104986e-01  5.2509316105894410e-01 1.0011875458038257e-01 6.4744175053203612e-01  5.2505899980857573e-01 1.0008352432608689e-01 6.4727629165395739e-01  5.2502269457234518e-01 1.0004609454031202e-01 6.4710039294813948e-01  5.2493740947058953e-01 9.9958190645448475e-02 6.4668699936222507e-01  5.2490739376494211e-01 9.9927250544382687e-02 6.4654144659486434e-01  5.2488271919473872e-01 9.9901807585797031e-02 6.4642176594324774e-01  5.2486205885204051e-01 9.9880491954381909e-02 6.4632153505043444e-01  5.2484456684948588e-01 9.9862430221706044e-02 6.4623666077664133e-01  5.2482982957192892e-01 9.9847195486845577e-02 6.4616514332040720e-01  5.2481749490878749e-01 9.9834425082857003e-02 6.4610527920784644e-01  5.2480728634724316e-01 9.9823835062288771e-02 6.4605573013542117e-01  5.2479896667142989e-01 9.9815182729593638e-02 6.4601534729675814e-01  5.2479235948139302e-01 9.9808288955867824e-02 6.4598327615686058e-01  5.2478729387004475e-01 9.9802981184640635e-02 6.4595868817663915e-01  5.2478365361758550e-01 9.9799145372780868e-02 6.4594101967290340e-01  5.2478015140431622e-01 9.9795396491951752e-02 6.4592402491597545e-01  5.2477876939703083e-01 9.9793859215206213e-02 6.4591732277571867e-01  5.2477776279879618e-01 9.9792679700962700e-02 6.4591244566121520e-01  5.2477718114893457e-01 9.9791902729250051e-02 6.4590963465131235e-01  5.2477596952387562e-01 9.9790283705988747e-02 6.4590377929721132e-01  5.2477545295217798e-01 9.9789724802084923e-02 6.4590127299271238e-01  5.2477515531048968e-01 9.9789411531442579e-02 6.4589982822636127e-01  5.2477514900640798e-01 9.9789404912112731e-02 6.4589979762484684e-01  5.2477541942478656e-01 9.9789684590057798e-02 6.4590111062334721e-01  5.2477585817760908e-01 9.9790128954853868e-02 6.4590324166921609e-01  5.2477644680210089e-01 9.9790703895423341e-02 6.4590610225283551e-01  5.2477774881322958e-01 9.9791910453387839e-02 6.4591243468507309e-01  5.2477793823947649e-01 9.9792054947817344e-02 6.4591335838755737e-01  5.2477781004570756e-01 9.9791892954571262e-02 6.4591273827742723e-01  5.2477760902248871e-01 9.9791670515226250e-02 6.4591176340636625e-01  5.2477753561066709e-01 9.9791590106155001e-02 6.4591140732692964e-01  5.2477763445231251e-01 9.9791694261818831e-02 6.4591188706854585e-01  5.2477792353167751e-01 9.9791998493503939e-02 6.4591329018005839e-01  5.2477860302222146e-01 9.9792701903141198e-02 6.4591658912441530e-01  5.2478397639535013e-01 9.9798068733043144e-02 6.4594269180317354e-01  5.2478672485607603e-01 9.9800776803711966e-02 6.4595604583465160e-01  5.2478913477955891e-01 9.9803151292190750e-02 6.4596775478393120e-01  5.2479125265147919e-01 9.9805240637285908e-02 6.4597804437474204e-01  5.2479295508571666e-01 9.9806922630493899e-02 6.4598631525207262e-01  5.2479497809559617e-01 9.9808930240174551e-02 6.4599614259072913e-01  5.2479680387642846e-01 9.9810749527082271e-02 6.4600501097778629e-01  5.2479918910