<?xml version="1.0"?>
<VTKFile type="UnstructuredGrid"  version="0.1"  >
<UnstructuredGrid>
<Piece  NumberOfPoints="7288" NumberOfCells="14083">
<Points>
<DataArray  type="Float64"  NumberOfComponents="3"  format="ascii">239.8 188 0  250.2 180 0  258.2 172.4 0  257 169.4 0  259.9 157.4 0  258.7 150.3 0  261 143.5 0  251.7 144.4 0  250 138.7 0  247 138.1 0  245.2 130.8 0  247.3 126.4 0  242.7 118.6 0  231.2 107.7 0  226 102.4 0  226.5 93.90000000000001 0  224.5 91.19999999999999 0  224.5 84.09999999999999 0  234.5 73.80000000000001 0  228.4 68.90000000000001 0  230 70 0  233.4 68 0  222.7 61.5 0  220.6 45.5 0  223.4 49.40000000000001 0  224 47 0  221.8 43.09999999999999 0  221 38.40000000000001 0  219.5 38.5 0  219.4 41.69999999999999 0  217.1 36.90000000000001 0  209.7 36 0  209.5 31.69999999999999 0  205.1 29.90000000000001 0  201.5 30.40000000000001 0  199.2 38.69999999999999 0  201.8 41.40000000000001 0  194.8 53.80000000000001 0  196.1 57.69999999999999 0  193 59 0  191.4 66.09999999999999 0  193.5 66.5 0  194.1 64.40000000000001 0  195.6 64.69999999999999 0  195.4 72.40000000000001 0  199.5 77.30000000000001 0  197.7 86.90000000000001 0  200.6 87.5 0  201.5 91 0  198 94.80000000000001 0  198.6 100 0  197.3 105.4 0  198 109.5 0  197 112.7 0  198.3 116.1 0  201.3 122 0  207.2 121 0  208.1 126.7 0  205.6 127.9 0  209.1 134.9 0  210.9 144.4 0  210.1 147.9 0  213 148.4 0  215.4 149.3 0  215.1 152.8 0  219.9 159.7 0  220.3 163.2 0  218.7 164.9 0  219.9 166.7 0  221.9 169.7 0  220 170.3 0  224.9 174.7 0  229.8 177.4 0  229.7 181 0  228 172.9 0  239 178 0  240.4 180 0  239 181.5 0  241.2 185.9 0  242.95 187.99 0  240.5875 187.9975 0  241.375 187.995 0  242.1625 187.9925 0  243.6090909090879 187.2636363636397 0  244.2681818181765 186.5372727272785 0  244.9272727272692 185.810909090913 0  245.5863636363531 185.0845454545571 0  246.245454545445 184.3581818181923 0  246.9045454545351 183.6318181818295 0  247.5636363636303 182.9054545454612 0  248.2227272727197 182.1790909090992 0  248.8818181818179 181.4527272727275 0  249.5409090909066 180.7263636363664 0  250.8666666666961 179.3666666666387 0  251.5333333334033 178.7333333332668 0  252.2000000000994 178.0999999999055 0  252.8666666668011 177.466666666539 0  253.5333333335083 176.8333333331671 0  254.2000000002044 176.1999999998058 0  254.8666666669005 175.5666666664445 0  255.5333333336077 174.9333333330727 0  256.2000000002685 174.2999999997449 0  256.8666666668457 173.6666666664966 0  257.5333333334283 173.033333333243 0  257.9000000000077 171.6500000000191 0  257.6000000000015 170.9000000000038 0  257.2999999999954 170.1499999999885 0  257.2230769230778 168.4769230769195 0  257.4461538461543 167.5538461538442 0  257.6692307692309 166.6307692307688 0  257.8923076923074 165.7076923076935 0  258.115384615384 164.7846153846181 0  258.3384615384605 163.8615384615427 0  258.5615384615395 162.9384615384572 0  258.784615384616 162.0153846153819 0  259.0076923076926 161.0923076923065 0  259.2307692307691 160.1692307692311 0  259.4538461538457 159.2461538461558 0  259.6769230769222 158.3230769230804 0  259.750000000001 156.512500000006 0  259.6000000000014 155.6250000000082 0  259.4500000000029 154.7375000000176 0  259.3000000000018 153.8500000000108 0  259.1500000000007 152.962500000004 0  259.0000000000004 152.0750000000026 0  258.849999999999 151.187499999994 0  258.9875000000052 149.4499999999846 0  259.275000000002 148.5999999999941 0  259.5624999999954 147.7500000000135 0  259.849999999995 146.900000000015 0  260.1374999999945 146.0500000000164 0  260.4249999999913 145.2000000000259 0  260.7124999999948 144.3500000000154 0  260.0700000000398 143.5899999999961 0  259.1400000000573 143.6799999999944 0  258.2100000000351 143.7699999999966 0  257.2800000000262 143.8599999999975 0  256.350000000011 143.9499999999989 0  255.4199999999881 144.0400000000011 0  254.4899999999726 144.1300000000026 0  253.5599999999944 144.2200000000005 0  252.6300000000009 144.3099999999999 0  251.4166666666658 143.4499999999971 0  251.1333333333388 142.5000000000182 0  250.8500000000015 141.5500000000051 0  250.5666666666612 140.5999999999818 0  250.2833333333342 139.6500000000029 0  249.2500000000005 138.5500000000001 0  248.5000000000011 138.4000000000002 0  247.7499999999995 138.2499999999999 0  246.7750000000005 137.1875000000023 0  246.5500000000021 136.2750000000085 0  246.3250000000036 135.3625000000147 0  246.1000000000042 134.450000000017 0  245.8750000000022 133.5375000000088 0  245.650000000003 132.6250000000124 0  245.4250000000046 131.7125000000187 0  245.619999999996 129.9200000000084 0  246.0399999999992 129.0400000000017 0  246.4599999999987 128.1600000000028 0  246.8800000000001 127.2799999999997 0  246.8399999999988 125.6199999999979 0  246.3799999999984 124.8399999999973 0  245.9199999999991 124.0599999999985 0  245.4600000000036 123.2800000000062 0  245.0000000000049 122.5000000000082 0  244.5400000000036 121.7200000000062 0  244.0800000000033 120.9400000000056 0  243.6200000000016 120.1600000000027 0  243.1600000000012 119.3800000000021 0  241.9812499999996 117.9187499999997 0  241.2625000000007 117.2375000000007 0  240.5437500000017 116.5562500000017 0  239.8250000000041 115.875000000004 0  239.1062500000066 115.1937500000063 0  238.3875000000076 114.5125000000072 0  237.6687500000087 113.8312500000082 0  236.9500000000083 113.1500000000079 0  236.231250000008 112.4687500000076 0  235.512500000009 111.7875000000085 0  234.7937500000045 111.1062500000043 0  234.0750000000042 110.4250000000039 0  233.3562500000066 109.7437500000062 0  232.6375000000021 109.062500000002 0  231.9187500000031 108.381250000003 0  230.5500000000004 107.0375000000004 0  229.9000000000021 106.3750000000021 0  229.2500000000038 105.7125000000039 0  228.6000000000041 105.0500000000042 0  227.9500000000018 104.3875000000018 0  227.2999999999952 103.7249999999951 0  226.6500000000024 103.0625000000024 0  226.0555555555555 101.4555555555556 0  226.1111111111111 100.5111111111111 0  226.1666666666667 99.56666666666668 0  226.2222222222222 98.62222222222223 0  226.2777777777778 97.67777777777778 0  226.3333333333333 96.73333333333335 0  226.3888888888889 95.78888888888889 0  226.4444444444445 94.84444444444446 0  226 93.22499999999999 0  225.5000000000026 92.55000000000358 0  225.0000000000026 91.87500000000358 0  224.5 90.31250000000068 0  224.5 89.4250000000097 0  224.5 88.53750000001317 0  224.5 87.65000000001388 0  224.5 86.76250000001457 0  224.5 85.87500000001248 0  224.5 84.9874999999993 0  225.1666666666659 83.41333333333409 0  225.8333333333319 82.72666666666818 0  226.4999999999978 82.04000000000228 0  227.1666666666649 81.35333333333514 0  227.8333333333301 80.66666666667 0  228.4999999999942 79.980000000006 0  229.1666666666601 79.2933333333401 0  229.8333333333316 78.60666666666847 0  230.4999999999975 77.92000000000257 0  231.1666666666644 77.23333333333572 0  231.8333333333295 76.54666666667057 0  232.4999999999972 75.86000000000287 0  233.1666666666681 75.17333333333181 0  233.8333333333368 74.48666666666306 0  233.7499999999995 73.16666666666629 0  233.0000000000018 72.53333333333488 0  232.2500000000014 71.90000000000116 0  231.5000000000009 71.26666666666743 0  230.7500000000005 70.63333333333372 0  229.233333333333 68.75000000000006 0  230.0666666666665 68.60000000000004 0  230.8999999999995 68.45000000000009 0  231.7333333333325 68.30000000000015 0  232.566666666667 68.14999999999995 0  232.5499999999897 68.50000000000607 0  231.7 69 0  230.8500000000103 69.49999999999393 0  227.8300000000008 68.16000000000106 0  227.2600000000064 67.42000000000837 0  226.6900000000077 66.68000000001001 0  226.1200000000024 65.94000000000314 0  225.5500000000108 65.20000000001409 0  224.9800000000098 64.46000000001268 0  224.4100000000007 63.72000000000098 0  223.8399999999971 62.97999999999621 0  223.2699999999993 62.23999999999915 0  222.753846153846 60.56923076923239 0  222.8076923076921 59.63846153846478 0  222.8615384615381 58.70769230769827 0  222.9153846153842 57.77692307693071 0  222.9692307692302 56.84615384616315 0  223.0230769230761 55.91538461539836 0  223.0769230769224 54.98461538462665 0  223.1307692307688 54.05384615385345 0  223.184615384615 53.12307692308312 0  223.2384615384611 52.19230769231556 0  223.2923076923071 51.26153846154906 0  223.3461538461533 50.33076923077847 0  222.8400000000024 48.62000000000327 0  222.2800000000047 47.84000000000661 0  221.7200000000005 47.06000000000071 0  221.1600000000003 46.28000000000039 0  221.4500000000116 45.87500000000512 0  222.3 46.25 0  223.1499999999884 46.62499999999488 0  223.5600000000055 46.22000000000981 0  223.1199999999987 45.43999999999767 0  222.6800000000061 44.66000000001075 0  222.2399999999969 43.8799999999944 0  221.6400000000004 42.16000000000253 0  221.4800000000009 41.22000000000548 0  221.3200000000014 40.28000000000801 0  221.1600000000009 39.34000000000556 0  220.25 38.45 0  219.4749999999999 39.30000000000165 0  219.45 40.09999999999999 0  219.425 40.90000000000112 0  219.0166666666641 40.89999999999463 0  218.6333333333375 40.10000000000875 0  218.2500000000016 39.30000000000339 0  217.8666666666635 38.49999999999351 0  217.483333333337 37.70000000000762 0  216.1750000000165 36.78750000000201 0  215.2500000000275 36.67500000000335 0  214.3250000000385 36.56250000000469 0  213.4000000000277 36.45000000000337 0  212.4750000000059 36.33750000000072 0  211.5499999999838 36.22499999999803 0  210.6249999999835 36.11249999999799 0  209.6600000000001 35.14000000000318 0  209.6200000000001 34.28000000000268 0  209.5800000000001 33.42000000000284 0  209.5399999999998 32.55999999999681 0  208.6200000000117 31.34000000000476 0  207.7400000000138 30.98000000000564 0  206.8600000000162 30.62000000000662 0  205.9800000000174 30.26000000000711 0  204.2000000000054 30.02499999999925 0  203.2999999999946 30.15000000000076 0  202.3999999999945 30.27500000000076 0  201.2444444444438 31.32222222222468 0  200.9888888888895 32.24444444
[...]
<PointData  Vectors="f_12"> 
<DataArray  type="Float64"  Name="f_12"  NumberOfComponents="3" format="ascii">6.0408726456776152e-01 2.7204343215754989e-01 8.5694056945977637e-01  5.8713886755620115e-01 2.1840278496902557e-01 8.4567756033253405e-01  5.7012653240392719e-01 1.7423930963171741e-01 8.1410939517118774e-01  5.6389408639683014e-01 1.6099260998642370e-01 7.9748044843448251e-01  5.3376070356610161e-01 1.1039590635173413e-01 6.8785814626440578e-01  5.2190775527695299e-01 9.7267620981608530e-02 6.3193087906958834e-01  5.1880361492145011e-01 9.4184469634869816e-02 6.1634912424231758e-01  5.0826846931797509e-01 8.7448635568238661e-02 5.5947125009695409e-01  4.9717241471033519e-01 8.2067810376509467e-02 4.9600545457317086e-01  4.9356304753222291e-01 8.1333518904251986e-02 4.7406661176578180e-01  4.8386565682453575e-01 8.0966907984579173e-02 4.1349915593543601e-01  4.8156312648382327e-01 8.1389912355774807e-02 3.9867692863192494e-01  4.7950499704984306e-01 8.2139442623024195e-02 3.8516682200795177e-01  4.7624430236549470e-01 8.3947015468680358e-02 3.6339702212468306e-01  4.7400828453427862e-01 8.5754640955363934e-02 3.4811662145716565e-01  4.7138799092192452e-01 8.8455906444687135e-02 3.2985923961850638e-01  4.7055652000469228e-01 8.9538726592745810e-02 3.2392895602824545e-01  4.6826469698155626e-01 9.3014632383010179e-02 3.0731065339155023e-01  4.6644567935719039e-01 9.6413782200878470e-02 2.9377176263715776e-01  4.6692565734174141e-01 9.5460187768667479e-02 2.9737387069996962e-01  4.6670877948239337e-01 9.5881895435683248e-02 2.9575134880489734e-01  4.6661019807174514e-01 9.6074483324352811e-02 2.9501364655835888e-01  4.6964363743370319e-01 9.0928091665504918e-02 3.1729950731636636e-01  4.7574730053376363e-01 8.4237437709942423e-02 3.6011941833743849e-01  4.7395354014403401e-01 8.5757603484363787e-02 3.4779860252804495e-01  4.7607217992763967e-01 8.3946990885383696e-02 3.6236440225730071e-01  4.7626902125220694e-01 8.3818533454772540e-02 3.6369166706329942e-01  4.7663703962714649e-01 8.3532964710822083e-02 3.6620454424190463e-01  4.7663724596435947e-01 8.3533011826948722e-02 3.6620581899836629e-01  4.7662574618231501e-01 8.3571381587987631e-02 3.6610802265913911e-01  4.7775131729058329e-01 8.2851213111365618e-02 3.7369672988434038e-01  4.7945005690129822e-01 8.1982632555045176e-02 3.8500156154278553e-01  4.8052986652586022e-01 8.1471839843823085e-02 3.9216136896152931e-01  4.8080773887565320e-01 8.1350627841943787e-02 3.9399608874764813e-01  4.8083990244532143e-01 8.1336982493504892e-02 3.9420830002489105e-01  4.7988475393397900e-01 8.1765714646338916e-02 3.8789467715968318e-01  4.7867297450659274e-01 8.2404942218325963e-02 3.7981389863702120e-01  4.7441313841540050e-01 8.5241623345378228e-02 3.5104311937821830e-01  4.7344997017999219e-01 8.6123746041546004e-02 3.4438717217468351e-01  4.7298128364758191e-01 8.6557030926360468e-02 3.4114911332772752e-01  4.7171401697897153e-01 8.7912139003452572e-02 3.3228063905760608e-01  4.7173339176976797e-01 8.7895690220799919e-02 3.3241312005749080e-01  4.7246355681574942e-01 8.7101157128382650e-02 3.3752996272613234e-01  4.7219114336701418e-01 8.7400905122820935e-02 3.3561801565600441e-01  4.7123015655034212e-01 8.8504633055646875e-02 3.2884868194850736e-01  4.7047249276571557e-01 8.9477401660365399e-02 3.2345101068487936e-01  4.7065476775782944e-01 8.9236795113886963e-02 3.2475286215816551e-01  4.7085477494091882e-01 8.9004582294737705e-02 3.2616051210062269e-01  4.7190605118136125e-01 8.7791381306184246e-02 3.3356336998753594e-01  4.7316772323542411e-01 8.6417608727386672e-02 3.4241013924851960e-01  4.7425510566421936e-01 8.5414583006698699e-02 3.4992193443998676e-01  4.7558440133215263e-01 8.4316177911777965e-02 3.5902956190701785e-01  4.7644454679246157e-01 8.3696269961622619e-02 3.6486440268192372e-01  4.7698957955159843e-01 8.3327788903785685e-02 3.6854682438312031e-01  4.7736870594357617e-01 8.3091939994178146e-02 3.7109406297887959e-01  4.7787628725019338e-01 8.2799864905206716e-02 3.7448843103291535e-01  4.7854274633354987e-01 8.2508070153836988e-02 3.7888199416738205e-01  4.8100352628342469e-01 8.1486992469147812e-02 3.9508854863089821e-01  4.8153777613522414e-01 8.1282549602208876e-02 3.9859847038542451e-01  4.8385155460042145e-01 8.0733896196002991e-02 4.1355472554300304e-01  4.8947931913404319e-01 8.0278108977556245e-02 4.4923197319548891e-01  4.9049871848393567e-01 8.0296455295256197e-02 4.5560615489239692e-01  4.9127247799477225e-01 8.0439715555994551e-02 4.6034076376875821e-01  4.9408116929585261e-01 8.1033044414148575e-02 4.7741950464050575e-01  4.9815781378989449e-01 8.2098200009950245e-02 5.0195676581964899e-01  5.1158911141617325e-01 8.9512063143227988e-02 5.7784274358527110e-01  5.2182781935155420e-01 9.7656959482423242e-02 6.3131417393824985e-01  5.2520937112932065e-01 1.0068852263310739e-01 6.4821964654723796e-01  5.2753101445305639e-01 1.0310937446827655e-01 6.5929785847889388e-01  5.3216587695498840e-01 1.0836793010045903e-01 6.8072657590904040e-01  5.3094050997290343e-01 1.0680594891493904e-01 6.7526655022431381e-01  5.3990088363061894e-01 1.1840093281027889e-01 7.1430067769705963e-01  5.6062133325065500e-01 1.5376801670548509e-01 7.8815351467994699e-01  5.6379564746624333e-01 1.5992314068812730e-01 7.9752108188081849e-01  5.4489853939407451e-01 1.2638230832202516e-01 7.3377213802839436e-01  5.7410801892609642e-01 1.8495159534152367e-01 8.2244030067004958e-01  5.8862118603940516e-01 2.2390002426035974e-01 8.4661598691838069e-01  5.9449670783005715e-01 2.4101688379426178e-01 8.5310283860692704e-01  6.0229773489191019e-01 2.6601828274191591e-01 8.5671585190873489e-01  6.0335897757626755e-01 2.6955281947548454e-01 8.5690501826191645e-01  6.0399473308898410e-01 2.7172778668638031e-01 8.5693653529737113e-01  6.0379365702186161e-01 2.7104031729440925e-01 8.5692835626979935e-01  6.0356250901075870e-01 2.7024858498072957e-01 8.5691813786280913e-01  6.0284993276169418e-01 2.6782681866542574e-01 8.5684688297542233e-01  6.0194233238091610e-01 2.6476750657792425e-01 8.5669709029053875e-01  6.0077382489422160e-01 2.6086180329508113e-01 8.5641707083797414e-01  5.9941079165879263e-01 2.5635586408020228e-01 8.5596182327938874e-01  5.9789147487437300e-01 2.5139773813126459e-01 8.5529311238294414e-01  5.9626411321525408e-01 2.4616479902515567e-01 8.5438408644616681e-01  5.9453632245505594e-01 2.4070036454981489e-01 8.5320363162062052e-01  5.9274631820333679e-01 2.3513819255431989e-01 8.5175102458455532e-01  5.9092614610607763e-01 2.2958952678877451e-01 8.5003002444920406e-01  5.8905850304108376e-01 2.2401311083255693e-01 8.4801144230490433e-01  5.8536710721781837e-01 2.1332955819020424e-01 8.4329944419912584e-01  5.8367297161035991e-01 2.0857927874397594e-01 8.4081901510392487e-01  5.8200331270173744e-01 2.0399827875390908e-01 8.3817787700286339e-01  5.8035720173314032e-01 1.9957838512082920e-01 8.3538853431886584e-01  5.7874486752075993e-01 1.9534209465362340e-01 8.3247886302657026e-01  5.7717702942158255e-01 1.9130875062029765e-01 8.2948643848203152e-01  5.7565086051265901e-01 1.8746529543547696e-01 8.2642098332579828e-01  5.7419074714952201e-01 1.8386303957127675e-01 8.2335158596658176e-01  5.7283310964032297e-01 1.8057971196759573e-01 8.2037855651521518e-01  5.7162289359923724e-01 1.7770742234014256e-01 8.1763429867006365e-01  5.7065229289392538e-01 1.7544458269477847e-01 8.1536715818902616e-01  5.6957335948377164e-01 1.7302176335568761e-01 8.1272424910046914e-01  5.6837155039865428e-01 1.7041319940931077e-01 8.0964449810663341e-01  5.6658142975115522e-01 1.6659660467070958e-01 8.0490251886800102e-01  5.6049635837589795e-01 1.5410588880802373e-01 7.8761424453161566e-01  5.5754774340178659e-01 1.4834451468428919e-01 7.7855588764028361e-01  5.5476642085737515e-01 1.4311959675964048e-01 7.6955040363924487e-01  5.5210302447176152e-01 1.3831161656734239e-01 7.6051093700411221e-01  5.4954979811153248e-01 1.3388311410004680e-01 7.5146974667656585e-01  5.4710768476435079e-01 1.2981213322811225e-01 7.4248531003183027e-01  5.4478102932853767e-01 1.2608306716887707e-01 7.3362495294460506e-01  5.4257153047697559e-01 1.2267460716124941e-01 7.2494755879012962e-01  5.4048960817954905e-01 1.1958318223092200e-01 7.1653697696829610e-01  5.3853206728662173e-01 1.1678297433443827e-01 7.0842660289308867e-01  5.3672193044991556e-01 1.1428420880312661e-01 7.0075782187000268e-01  5.3508518176134101e-01 1.1210218355122602e-01 6.9368424712494803e-01  5.3250646451855210e-01 1.0884484907273873e-01 6.8223835490271734e-01  5.3104668169849512e-01 1.0709688167280512e-01 6.7559964087862245e-01  5.2950988551355516e-01 1.0531417822625390e-01 6.6850682860878929e-01  5.2795365231649860e-01 1.0356605686881147e-01 6.6121908308070731e-01  5.2640985532605766e-01 1.0188687041530996e-01 6.5388473769012501e-01  5.2489987204680422e-01 1.0029437901945605e-01 6.4661231799453800e-01  5.2342003156796135e-01 9.8778512866703000e-02 6.3939332595424025e-01  5.2073084624325150e-01 9.6101770452553761e-02 6.2607483846232292e-01  5.1993647971074830e-01 9.5325215756601800e-02 6.2208976337734267e-01  5.1941938445424729e-01 9.4819272800105645e-02 6.1947969295660554e-01  5.1908385743245289e-01 9.4489117204091408e-02 6.1777752656009621e-01  5.1889640885770172e-01 9.4299191067412677e-02 6.1682307071785869e-01  5.1881421312772713e-01 9.4209108487384924e-02 6.1640334688382847e-01  5.1879802344599846e-01 9.4183536205743518e-02 6.1632047470076190e-01  5.1876849722728058e-01 9.4159545983115434e-02 6.1616864258535498e-01  5.1862164877564909e-01 9.4051998174121312e-02 6.1541257484713674e-01  5.1831961056785891e-01 9.3828892532606664e-02 6.1385259936469139e-01  5.1783791678858315e-01 9.3476279405080534e-02 6.1135297223192364e-01  5.1714310725904011e-01 9.2976941604848873e-02 6.0772364549744418e-01  5.1621197580763722e-01 9.2326282972973017e-02 6.0281897028683373e-01  5.1501958624740884e-01 9.1525171705391511e-02 5.9647116601718764e-01  5.1351041690675925e-01 9.0557637886719070e-02 5.8833640760224259e-01  5.1151442596221142e-01 8.9339688980549600e-02 5.7743156754080494e-01  5.0468418315345609e-01 8.5482374639030148e-02 5.3936753612151522e-01  5.0230969642900802e-01 8.4262859895929298e-02 5.2588262214981896e-01  5.0041379947615372e-01 8.3364346953101340e-02 5.1498116870604127e-01  4.9891400323074953e-01 8.2717481795945486e-02 5.0626051260741667e-01  4.9779115985420996e-01 8.2279111029413821e-02 4.9967144128629803e-01  4.9683072513513271e-01 8.1980546196998599e-02 4.9394840056542882e-01  4.9613105044688299e-01 8.1820470824347735e-02 4.8971535061342419e-01  4.9512474955348001e-01 8.1616815172886797e-02 4.8359727473062863e-01  4.9152945591405511e-01 8.1022554739037439e-02 4.6159547237772719e-01  4.9006374163648164e-01 8.0851821395802936e-02 4.5255168370061194e-01  4.8881914653743741e-01 8.0755217449464803e-02 4.4482183193767438e-01  4.8771196811793582e-01 8.0715164294562394e-02 4.3789944531159813e-01  4.8670409964230671e-01 8.0721878837618485e-02 4.3155705756314727e-01  4.8576492455637571e-01 8.0766853015464865e-02 4.2561220379751291e-01  4.8485687610479677e-01 8.0845405183171945e-02 4.1983452679592309e-01  4.8300694344475270e-01 8.1098626185924089e-02 4.0799083068949249e-01  4.8243591553125759e-01 8.1200743587630186e-02 4.0431716446681726e-01  4.8201752910279200e-01 8.1285173946798989e-02 4.0161818356654455e-01  4.8172177344511979e-01 8.1351168976662669e-02 3.9970545797601381e-01  4.8144075701408401e-01 8.1424790330203625e-02 3.9787987339797420e-01  4.8125335799562957e-01 8.1482313063781620e-02 3.9665635447788899e-01  4.8103642942096136e-01 8.1552948030230762e-02 3.9523737621643185e-01  4.8080316761958686e-01 8.1632702441293808e-02 3.9370919814874045e-01  4.8056696217849187e-01 8.1717196535300629e-02 3.9215946461729490e-01  4.8033185477968332e-01 8.1804717080830647e-02 3.9061489186093462e-01  4.8010223245121469e-01 8.1893358534518720e-02 3.8910448152825555e-01  4.7988341809083951e-01 8.1980834716772186e-02 3.8766339526053956e-01  4.7967992977994189e-01 8.2064885147147215e-02 3.8632165153164560e-01  4.7932058873279321e-01 8.2220957423459334e-02 3.8394769554851249e-01  4.7911917168405116e-01 8.2312910345758147e-02 3.8261440286442278e-01  4.7891475833800601e-01 8.2409051650169221e-02 3.8125965984571786e-01  4.7870880314824016e-01 8.2508776216025953e-02 3.7989306506387749e-01  4.7850328871709402e-01 8.2611059566679745e-02 3.7852781912887629e-01  4.7829947038282283e-01 8.2715323748367292e-02 3.7717223130346050e-01  4.7809676552013874e-01 8.2821865377868911e-02 3.7582241227485014e-01  4.7789518731636332e-01 8.2930716440148058e-02 3.7447841997155484e-01  4.7769525085685172e-01 8.3041621290236206e-02 3.7314367704805596e-01  4.7749524828301593e-01 8.3155653188987474e-02 3.7180667749838353e-01  4.7729461943036433e-01 8.3273228021824797e-02 3.7046360740113865e-01  4.7709335644891049e-01 8.3394516139879624e-02 3.6911430722250343e-01  4.7688816086381502e-01 8.3521808132238182e-02 3.6773642199845352e-01  4.7668111723899348e-01 8.3654244512762252e-02 3.6634369616736773e-01  4.7646702505176802e-01 8.3795446826832237e-02 3.6490089768727058e-01  4.7602748631840636e-01 8.4099405789900952e-02 3.6192996171866204e-01  4.7580526628397607e-01 8.4260800560301274e-02 3.6042301287463036e-01  4.7557455600254378e-01 8.4433947340356988e-02 3.5885490009442866e-01  4.7533004854713223e-01 8.4624173908437711e-02 3.5718863801499168e-01  4.7507013181502400e-01 8.4833493395145926e-02 3.5541277287068906e-01  4.7478482636277114e-01 8.5071388254961286e-02 3.5345822916532310e-01  4.7445327556090322e-01 8.5357581714525788e-02 3.5118084727572374e-01  4.7353622109422561e-01 8.6191179640345880e-02 3.4485692017845893e-01  4.7316721195198769e-01 8.6544063519960579e-02 3.4230218762536868e-01  4.7283778379481750e-01 8.6869601198364801e-02 3.4001537768902768e-01  4.7253341194926440e-01 8.7180327087201831e-02 3.3789659607005235e-01  4.7224957119694305e-01 8.7479514170977685e-02 3.3591510496437477e-01  4.7198616256725096e-01 8.7766167290341271e-02 3.3407086073914083e-01  4.7174613362181667e-01 8.8035743200432573e-02 3.3238527596265277e-01  4.7153769460474199e-01 8.8277180676829589e-02 3.3091705272148125e-01  4.7126756503024253e-01 8.8605808394993713e-02 3.2900441429894811e-01  4.7108666652732806e-01 8.8836401070909191e-02 3.2771702432770272e-01  4.7086133318211892e-01 8.9130815151828219e-02 3.2610922311256435e-01  4.7021206002499022e-01 9.0011624469710588e-02 3.2145857136222566e-01  4.6992007257064478e-01 9.0423667210524972e-02 3.1935841047351443e-01  4.6964779031049203e-01 9.0818871129911244e-02 3.1739394895325307e-01  4.6938547568051181e-01 9.1210530267806234e-02 3.1549530637367834e-01  4.6912684628061085e-01 9.1608199260182127e-02 3.1361684605058521e-01  4.6886912877679598e-01 9.2015887075949113e-02 3.1173869018464256e-01  4.6859949450345112e-01 9.2454469036331491e-02 3.0976710642288457e-01  4.6792970407596834e-01 9.3591823239615707e-02 3.0484367710476024e-01  4.6768379755881168e-01 9.4026605459503795e-02 3.0302691448674124e-01  4.6747727557615759e-01 9.4400211750311630e-02 3.0149665707942658e-01  4.6729818330867923e-01 9.4731231263622054e-02 3.0016584146509251e-01  4.6714126768257297e-01 9.5027147174939278e-02 2.9899658070089263e-01  4.6700355445568809e-01 9.5291686463218991e-02 2.9796772497620749e-01  4.6688322940584343e-01 9.5526739716028139e-02 2.9706659741718172e-01  4.6677900473267209e-01 9.5733413452409724e-02 2.9628433563490153e-01  4.6668987321887673e-01 9.5912443757253676e-02 2.9561408253808985e-01  4.6661516429932703e-01 9.6064155119730182e-02 2.9505136586160746e-01  4.6655439293157730e-01 9.6188662045549669e-02 2.9459301775464319e-01  4.6650726548542781e-01 9.6285891503948867e-02 2.9423719990371883e-01  4.6647362493158395e-01 9.6355645194243986e-02 2.9398301728920612e-01  4.6645347103575602e-01 9.6397569482622708e-02 2.9383066368361915e-01  4.6645392062511243e-01 9.6396783511649653e-02 2.9383396322192212e-01  4.6647629967344545e-01 9.6350780800406793e-02 2.9400277584926560e-01  4.6651330846469408e-01 9.6275068446759815e-02 2.9428173897547233e-01  4.6656493995257381e-01 9.6170142923556107e-02 2.9467052798196702e-01  4.6663073519377157e-01 9.6037569628151312e-02 2.9516532690427422e-01  4.6677779431577410e-01 9.5746778499506788e-02 2.9626814086326081e-01  4.6670351914044328e-01 9.5891659406472804e-02 2.9571228044239795e-01  4.6666151552003393e-01 9.5973814620951711e-02 2.9539787387105509e-01  4.6663432069092819e-01 9.6027111881289220e-02 2.9519428164087314e-01  4.6661794674836066e-01 9.6059255073191421e-02 2.9507167615859708e-01  4.6661950753047965e-01 9.6056188370669482e-02 2.9508336444084710e-01  4.6664123669106439e-01 9.6013544821628216e-02 2.9524606185883456e-01  4.6667500289085079e-01 9.5947448208014943e-02 2.9549880538166889e-01  4.6713721941461794e-01 9.5056435240100837e-02 2.9895253697145507e-01  4.6732639681266969e-01 9.4702569669843251e-02 3.0036032172687693e-01  4.6752201739834026e-01 9.4344821264869178e-02 3.0181163353773988e-01  4.6773195135283147e-01 9.3970280310674115e-02 3.0336399128405828e-01  4.6796069188917561e-01 9.3573064611534085e-02 3.0504940037528672e-01  4.6821184392305498e-01 9.3149221998642326e-02 3.0689315385933924e-01  4.6849011300520316e-01 9.2693503056520229e-02 3.0892836111960958e-01  4.6880273878721535e-01 9.2197149989823465e-02 3.1120641739285843e-01  4.6916620525958802e-01 9.1638087564121007e-02 3.1384550756280494e-01  4.7013579278037970e-01 9.0222563923810201e-02 3.2084612839524995e-01  4.7053369810423523e-01 8.9672403367543244e-02 3.2370297059355935e-01  4.7090536123769899e-01 8.9176225579199186e-02 3.2636191900488837e-01  4.7126271922382507e-01 8.8716331788589800e-02 3.2890899527363338e-01  4.7161272264730725e-01 8.8281942580901565e-02 3.3139459841287844e-01  4.7195598619822127e-01 8.7871160735170817e-02 3.3382364708268653e-01  4.7229251262785382e-01 8.7482524872186135e-02 3.3619695678683337e-01  4.7262091105924614e-01 8.7116166165326386e-02 3.3850554103634817e-01  4.7293880610712619e-01 8.6773237715563237e-02 3.4073353431445730e-01  4.7324172049064550e-01 8.6457080668779454e-02 3.4285037311548472e-01  4.7352405550702520e-01 8.6171920365754801e-02 3.4481777834224775e-01  4.7377508373216015e-01 8.5926602728294138e-02 3.4656202205258990e-01  4.7414931792783482e-01 8.5581159643108889e-02 3.4914929636441622e-01  4.7442830357980592e-01 8.5337307843852836e-02 3.5106926941819966e-01  4.7476499796956756e-01 8.5050615603680185e-02 3.5338200613815779e-01  4.7517035829709098e-01 8.4712586505879942e-02 3.5616298911685229e-01  4.7599090106997033e-01 8.4027146180888690e-02 3.6179731791766867e-01  4.7605191766616822e-01 8.3969832937702243e-02 3.6222100660042916e-01  4.7606824562853101e-01 8.3951981012339374e-02 3.6233617357592557e-01  4.7606855756938798e-01 8.3951628682479948e-02 3.6233838193705148e-01  4.7606433032022100e-01 8.3959209324020637e-02 3.6230648379938846e-01  4.7607771095735341e-01 8.3954877167577435e-02 3.6239359710065122e-01  4.7614114793988083e-01 8.3911896909435499e-02 3.6282244020944532e-01  4.7641990992813898e-01 8.3705312011113434e-02 3.6471948869525911e-01  4.7652649179170364e-01 8.3623398703813939e-02 3.6544676685917782e-01  4.7659130497494739e-01 8.3571365945183981e-02 3.6589044530458326e-01  4.7662568155693158e-01 8.3542629687490239e-02 3.6612646589361719e-01  4.7663650885484671e-01 8.3533538076191613e-02 3.6620081679048622e-01  4.7663075576108671e-01 8.3538991003856269e-02 3.6616090832635134e-01  4.7661483459227572e-01 8.3554332683097005e-02 3.6605027983858784e-01  4.7660269281400058e-01 8.3571096955261701e-02 3.6596256924453119e-01  4.7692041988780037e-01 8.3382037541622475e-02 3.6809471228409274e-01  4.7715785646543674e-01 8.3227590108459745e-02 3.6969706382221712e-01  4.7736466461172034e-01 8.3094139383406679e-02 3.7109224632585652e-01  4.7754038481634148e-01 8.2982314483203964e-02 3.7227680278619507e-01  4.7767630258588267e-01 8.2897221304769536e-02 3.7319216867014571e-01  4.7782129640821347e-01 8.2810777565833188e-02 3.7416568216133400e-01  4.7793868500968856e-01 8.2745052819330853e-02 3.7495087268064192e-01  4.7808755857