<?xml version="1.0"?>
<VTKFile type="UnstructuredGrid"  version="0.1"  >
<UnstructuredGrid>
<Piece  NumberOfPoints="7288" NumberOfCells="14083">
<Points>
<DataArray  type="Float64"  NumberOfComponents="3"  format="ascii">239.8 188 0  250.2 180 0  258.2 172.4 0  257 169.4 0  259.9 157.4 0  258.7 150.3 0  261 143.5 0  251.7 144.4 0  250 138.7 0  247 138.1 0  245.2 130.8 0  247.3 126.4 0  242.7 118.6 0  231.2 107.7 0  226 102.4 0  226.5 93.90000000000001 0  224.5 91.19999999999999 0  224.5 84.09999999999999 0  234.5 73.80000000000001 0  228.4 68.90000000000001 0  230 70 0  233.4 68 0  222.7 61.5 0  220.6 45.5 0  223.4 49.40000000000001 0  224 47 0  221.8 43.09999999999999 0  221 38.40000000000001 0  219.5 38.5 0  219.4 41.69999999999999 0  217.1 36.90000000000001 0  209.7 36 0  209.5 31.69999999999999 0  205.1 29.90000000000001 0  201.5 30.40000000000001 0  199.2 38.69999999999999 0  201.8 41.40000000000001 0  194.8 53.80000000000001 0  196.1 57.69999999999999 0  193 59 0  191.4 66.09999999999999 0  193.5 66.5 0  194.1 64.40000000000001 0  195.6 64.69999999999999 0  195.4 72.40000000000001 0  199.5 77.30000000000001 0  197.7 86.90000000000001 0  200.6 87.5 0  201.5 91 0  198 94.80000000000001 0  198.6 100 0  197.3 105.4 0  198 109.5 0  197 112.7 0  198.3 116.1 0  201.3 122 0  207.2 121 0  208.1 126.7 0  205.6 127.9 0  209.1 134.9 0  210.9 144.4 0  210.1 147.9 0  213 148.4 0  215.4 149.3 0  215.1 152.8 0  219.9 159.7 0  220.3 163.2 0  218.7 164.9 0  219.9 166.7 0  221.9 169.7 0  220 170.3 0  224.9 174.7 0  229.8 177.4 0  229.7 181 0  228 172.9 0  239 178 0  240.4 180 0  239 181.5 0  241.2 185.9 0  242.95 187.99 0  240.5875 187.9975 0  241.375 187.995 0  242.1625 187.9925 0  243.6090909090879 187.2636363636397 0  244.2681818181765 186.5372727272785 0  244.9272727272692 185.810909090913 0  245.5863636363531 185.0845454545571 0  246.245454545445 184.3581818181923 0  246.9045454545351 183.6318181818295 0  247.5636363636303 182.9054545454612 0  248.2227272727197 182.1790909090992 0  248.8818181818179 181.4527272727275 0  249.5409090909066 180.7263636363664 0  250.8666666666961 179.3666666666387 0  251.5333333334033 178.7333333332668 0  252.2000000000994 178.0999999999055 0  252.8666666668011 177.466666666539 0  253.5333333335083 176.8333333331671 0  254.2000000002044 176.1999999998058 0  254.8666666669005 175.5666666664445 0  255.5333333336077 174.9333333330727 0  256.2000000002685 174.2999999997449 0  256.8666666668457 173.6666666664966 0  257.5333333334283 173.033333333243 0  257.9000000000077 171.6500000000191 0  257.6000000000015 170.9000000000038 0  257.2999999999954 170.1499999999885 0  257.2230769230778 168.4769230769195 0  257.4461538461543 167.5538461538442 0  257.6692307692309 166.6307692307688 0  257.8923076923074 165.7076923076935 0  258.115384615384 164.7846153846181 0  258.3384615384605 163.8615384615427 0  258.5615384615395 162.9384615384572 0  258.784615384616 162.0153846153819 0  259.0076923076926 161.0923076923065 0  259.2307692307691 160.1692307692311 0  259.4538461538457 159.2461538461558 0  259.6769230769222 158.3230769230804 0  259.750000000001 156.512500000006 0  259.6000000000014 155.6250000000082 0  259.4500000000029 154.7375000000176 0  259.3000000000018 153.8500000000108 0  259.1500000000007 152.962500000004 0  259.0000000000004 152.0750000000026 0  258.849999999999 151.187499999994 0  258.9875000000052 149.4499999999846 0  259.275000000002 148.5999999999941 0  259.5624999999954 147.7500000000135 0  259.849999999995 146.900000000015 0  260.1374999999945 146.0500000000164 0  260.4249999999913 145.2000000000259 0  260.7124999999948 144.3500000000154 0  260.0700000000398 143.5899999999961 0  259.1400000000573 143.6799999999944 0  258.2100000000351 143.7699999999966 0  257.2800000000262 143.8599999999975 0  256.350000000011 143.9499999999989 0  255.4199999999881 144.0400000000011 0  254.4899999999726 144.1300000000026 0  253.5599999999944 144.2200000000005 0  252.6300000000009 144.3099999999999 0  251.4166666666658 143.4499999999971 0  251.1333333333388 142.5000000000182 0  250.8500000000015 141.5500000000051 0  250.5666666666612 140.5999999999818 0  250.2833333333342 139.6500000000029 0  249.2500000000005 138.5500000000001 0  248.5000000000011 138.4000000000002 0  247.7499999999995 138.2499999999999 0  246.7750000000005 137.1875000000023 0  246.5500000000021 136.2750000000085 0  246.3250000000036 135.3625000000147 0  246.1000000000042 134.450000000017 0  245.8750000000022 133.5375000000088 0  245.650000000003 132.6250000000124 0  245.4250000000046 131.7125000000187 0  245.619999999996 129.9200000000084 0  246.0399999999992 129.0400000000017 0  246.4599999999987 128.1600000000028 0  246.8800000000001 127.2799999999997 0  246.8399999999988 125.6199999999979 0  246.3799999999984 124.8399999999973 0  245.9199999999991 124.0599999999985 0  245.4600000000036 123.2800000000062 0  245.0000000000049 122.5000000000082 0  244.5400000000036 121.7200000000062 0  244.0800000000033 120.9400000000056 0  243.6200000000016 120.1600000000027 0  243.1600000000012 119.3800000000021 0  241.9812499999996 117.9187499999997 0  241.2625000000007 117.2375000000007 0  240.5437500000017 116.5562500000017 0  239.8250000000041 115.875000000004 0  239.1062500000066 115.1937500000063 0  238.3875000000076 114.5125000000072 0  237.6687500000087 113.8312500000082 0  236.9500000000083 113.1500000000079 0  236.231250000008 112.4687500000076 0  235.512500000009 111.7875000000085 0  234.7937500000045 111.1062500000043 0  234.0750000000042 110.4250000000039 0  233.3562500000066 109.7437500000062 0  232.6375000000021 109.062500000002 0  231.9187500000031 108.381250000003 0  230.5500000000004 107.0375000000004 0  229.9000000000021 106.3750000000021 0  229.2500000000038 105.7125000000039 0  228.6000000000041 105.0500000000042 0  227.9500000000018 104.3875000000018 0  227.2999999999952 103.7249999999951 0  226.6500000000024 103.0625000000024 0  226.0555555555555 101.4555555555556 0  226.1111111111111 100.5111111111111 0  226.1666666666667 99.56666666666668 0  226.2222222222222 98.62222222222223 0  226.2777777777778 97.67777777777778 0  226.3333333333333 96.73333333333335 0  226.3888888888889 95.78888888888889 0  226.4444444444445 94.84444444444446 0  226 93.22499999999999 0  225.5000000000026 92.55000000000358 0  225.0000000000026 91.87500000000358 0  224.5 90.31250000000068 0  224.5 89.4250000000097 0  224.5 88.53750000001317 0  224.5 87.65000000001388 0  224.5 86.76250000001457 0  224.5 85.87500000001248 0  224.5 84.9874999999993 0  225.1666666666659 83.41333333333409 0  225.8333333333319 82.72666666666818 0  226.4999999999978 82.04000000000228 0  227.1666666666649 81.35333333333514 0  227.8333333333301 80.66666666667 0  228.4999999999942 79.980000000006 0  229.1666666666601 79.2933333333401 0  229.8333333333316 78.60666666666847 0  230.4999999999975 77.92000000000257 0  231.1666666666644 77.23333333333572 0  231.8333333333295 76.54666666667057 0  232.4999999999972 75.86000000000287 0  233.1666666666681 75.17333333333181 0  233.8333333333368 74.48666666666306 0  233.7499999999995 73.16666666666629 0  233.0000000000018 72.53333333333488 0  232.2500000000014 71.90000000000116 0  231.5000000000009 71.26666666666743 0  230.7500000000005 70.63333333333372 0  229.233333333333 68.75000000000006 0  230.0666666666665 68.60000000000004 0  230.8999999999995 68.45000000000009 0  231.7333333333325 68.30000000000015 0  232.566666666667 68.14999999999995 0  232.5499999999897 68.50000000000607 0  231.7 69 0  230.8500000000103 69.49999999999393 0  227.8300000000008 68.16000000000106 0  227.2600000000064 67.42000000000837 0  226.6900000000077 66.68000000001001 0  226.1200000000024 65.94000000000314 0  225.5500000000108 65.20000000001409 0  224.9800000000098 64.46000000001268 0  224.4100000000007 63.72000000000098 0  223.8399999999971 62.97999999999621 0  223.2699999999993 62.23999999999915 0  222.753846153846 60.56923076923239 0  222.8076923076921 59.63846153846478 0  222.8615384615381 58.70769230769827 0  222.9153846153842 57.77692307693071 0  222.9692307692302 56.84615384616315 0  223.0230769230761 55.91538461539836 0  223.0769230769224 54.98461538462665 0  223.1307692307688 54.05384615385345 0  223.184615384615 53.12307692308312 0  223.2384615384611 52.19230769231556 0  223.2923076923071 51.26153846154906 0  223.3461538461533 50.33076923077847 0  222.8400000000024 48.62000000000327 0  222.2800000000047 47.84000000000661 0  221.7200000000005 47.06000000000071 0  221.1600000000003 46.28000000000039 0  221.4500000000116 45.87500000000512 0  222.3 46.25 0  223.1499999999884 46.62499999999488 0  223.5600000000055 46.22000000000981 0  223.1199999999987 45.43999999999767 0  222.6800000000061 44.66000000001075 0  222.2399999999969 43.8799999999944 0  221.6400000000004 42.16000000000253 0  221.4800000000009 41.22000000000548 0  221.3200000000014 40.28000000000801 0  221.1600000000009 39.34000000000556 0  220.25 38.45 0  219.4749999999999 39.30000000000165 0  219.45 40.09999999999999 0  219.425 40.90000000000112 0  219.0166666666641 40.89999999999463 0  218.6333333333375 40.10000000000875 0  218.2500000000016 39.30000000000339 0  217.8666666666635 38.49999999999351 0  217.483333333337 37.70000000000762 0  216.1750000000165 36.78750000000201 0  215.2500000000275 36.67500000000335 0  214.3250000000385 36.56250000000469 0  213.4000000000277 36.45000000000337 0  212.4750000000059 36.33750000000072 0  211.5499999999838 36.22499999999803 0  210.6249999999835 36.11249999999799 0  209.6600000000001 35.14000000000318 0  209.6200000000001 34.28000000000268 0  209.5800000000001 33.42000000000284 0  209.5399999999998 32.55999999999681 0  208.6200000000117 31.34000000000476 0  207.7400000000138 30.98000000000564 0  206.8600000000162 30.62000000000662 0  205.9800000000174 30.26000000000711 0  204.2000000000054 30.02499999999925 0  203.2999999999946 30.15000000000076 0  202.3999999999945 30.27500000000076 0  201.2444444444438 31.32222222222468 0  200.9888888888895 32.24444444
[...]
<PointData  Vectors="f_12"> 
<DataArray  type="Float64"  Name="f_12"  NumberOfComponents="3" format="ascii">4.5954610863841977e-01 2.3109032551820402e-01 1.7172809000325734e-01  4.5977836757423957e-01 2.3448716897643551e-01 1.7106769298307567e-01  4.6005867875480594e-01 2.3847818285893899e-01 1.7032886430308869e-01  4.6018393706497057e-01 2.4019722896105306e-01 1.7003525081312587e-01  4.6102149285371219e-01 2.5134156060862511e-01 1.6824724647310879e-01  4.6154442807045776e-01 2.5793574317939877e-01 1.6732201996289295e-01  4.6171280323621877e-01 2.6005677985777403e-01 1.6702101351211010e-01  4.6240921570177895e-01 2.6812498965870302e-01 1.6618172963331415e-01  4.6341759838209973e-01 2.7959767466905278e-01 1.6503330513724387e-01  4.6392778622463759e-01 2.8514526161346587e-01 1.6458640986686665e-01  4.6570020274194357e-01 3.0384247429753836e-01 1.6325865912640355e-01  4.6625308261408921e-01 3.0948584302794580e-01 1.6292212518159674e-01  4.6694329639403209e-01 3.1629590576850319e-01 1.6262480351685515e-01  4.6832693358490218e-01 3.2950639937077691e-01 1.6222489464620907e-01  4.6895338695985361e-01 3.3533856046900179e-01 1.6210421313078541e-01  4.6931329091662005e-01 3.3866045522233251e-01 1.6204435303921802e-01  4.6936259054713275e-01 3.3911507193473045e-01 1.6203634228085367e-01  4.6938478393092842e-01 3.3933002007857527e-01 1.6202793099028331e-01  4.6932290416584582e-01 3.3877547319044732e-01 1.6203031687733002e-01  4.6927416297369873e-01 3.3833281083201333e-01 1.6203497599369354e-01  4.6929298745918152e-01 3.3850393061000889e-01 1.6203309845833666e-01  4.6929302322553196e-01 3.3850453611936437e-01 1.6203293393872026e-01  4.6903445263706744e-01 3.3614829797767309e-01 1.6206070053378085e-01  4.6865119082422685e-01 3.3263349699437078e-01 1.6210926413111637e-01  4.6873751527280016e-01 3.3342819504975157e-01 1.6209709273212800e-01  4.6863344152544856e-01 3.3247013402873277e-01 1.6211168921683639e-01  4.6862651724382487e-01 3.3240620726626391e-01 1.6211276154196513e-01  4.6860908631139830e-01 3.3224558686339639e-01 1.6211524090690688e-01  4.6860909958184871e-01 3.3224570817601518e-01 1.6211523967026795e-01  4.6861291967561874e-01 3.3228077182867577e-01 1.6211478806815258e-01  4.6857296211805183e-01 3.3191189075392341e-01 1.6212086359243932e-01  4.6852060806890738e-01 3.3142774203766806e-01 1.6212922391751675e-01  4.6848489876191096e-01 3.3109743765810928e-01 1.6213488782514382e-01  4.6847633642193315e-01 3.3101821375890828e-01 1.6213625052564029e-01  4.6847572510523294e-01 3.3101255755025921e-01 1.6213634806403304e-01  4.6851156830223639e-01 3.3134406136727945e-01 1.6213070969949211e-01  4.6856182316250283e-01 3.3180834510496338e-01 1.6212301545676888e-01  4.6880878785909186e-01 3.3408400276625316e-01 1.6208702163036551e-01  4.6888663976694200e-01 3.3479825467397928e-01 1.6207696825331730e-01  4.6893081181334700e-01 3.3520337752585982e-01 1.6207120500579567e-01  4.6906676220699839e-01 3.3644640299490736e-01 1.6205520720728037e-01  4.6906340898596516e-01 3.3641564253300082e-01 1.6205567817113567e-01  4.6898090301904555e-01 3.3566159832648179e-01 1.6206529293480407e-01  4.6900859618233987e-01 3.3591464320726111e-01 1.6206213175709860e-01  4.6912487260465008e-01 3.3697542738860348e-01 1.6204946237748094e-01  4.6926574012146538e-01 3.3825453887221746e-01 1.6203673791659556e-01  4.6940460207024076e-01 3.3951071387590520e-01 1.6202575347222237e-01  4.6941500999956859e-01 3.3960333356928091e-01 1.6202563557601904e-01  4.6943763109232028e-01 3.3980200829063628e-01 1.6202657351943670e-01  4.6943477362985675e-01 3.3977026930921805e-01 1.6202952709224652e-01  4.6938782659442424e-01 3.3933866832460474e-01 1.6203650274898379e-01  4.6929979178091419e-01 3.3853154306437094e-01 1.6204843407972924e-01  4.6920647946109506e-01 3.3767586693430068e-01 1.6206105660602019e-01  4.6913654836662488e-01 3.3703404016403421e-01 1.6207062842578265e-01  4.6905934462333615e-01 3.3632355357819466e-01 1.6208216640385956e-01  4.6890538668293996e-01 3.3490076391750084e-01 1.6210802989403822e-01  4.6849936945856990e-01 3.3110299519321029e-01 1.6219977282602335e-01  4.6757108190648944e-01 3.2233769491951120e-01 1.6242719734065864e-01  4.6740582412064574e-01 3.2076772859992314e-01 1.6246858744740825e-01  4.6672616334779127e-01 3.1414524541932032e-01 1.6272815849675185e-01  4.6543069893165551e-01 3.0118527092559738e-01 1.6335894673563398e-01  4.6523183080243441e-01 2.9915718589741797e-01 1.6347074186440205e-01  4.6508658741432657e-01 2.9762434714115160e-01 1.6358385914908993e-01  4.6460075738543671e-01 2.9247803107749426e-01 1.6396252735361586e-01  4.6398428382422019e-01 2.8588576681846195e-01 1.6445928323929238e-01  4.6262570372632772e-01 2.7062994060776946e-01 1.6591697494006760e-01  4.6193999980927147e-01 2.6263967009749017e-01 1.6678145964063734e-01  4.6175095058834054e-01 2.6041160798351842e-01 1.6702904899077686e-01  4.6163515358431001e-01 2.5901588604092957e-01 1.6719850501805952e-01  4.6141939043948749e-01 2.5637304996933885e-01 1.6753745204292669e-01  4.6147486570082630e-01 2.5707265065079293e-01 1.6743841349696303e-01  4.6109715399320361e-01 2.5232386109222599e-01 1.6809835124683598e-01  4.6044031475401748e-01 2.4371721475469069e-01 1.6942951910107454e-01  4.6036471788548944e-01 2.4272401313057385e-01 1.6958188862510198e-01  4.6091084012301869e-01 2.4988011390371448e-01 1.6848152945335354e-01  4.6006194463972688e-01 2.3845790828832703e-01 1.7036103268731620e-01  4.5978136885321047e-01 2.3448108893222280e-01 1.7108940192234129e-01  4.5968339321505036e-01 2.3308017510440868e-01 1.7134915737946366e-01  4.5956995111938753e-01 2.3143910453287211e-01 1.7166045221464973e-01  4.5955549027762338e-01 2.3122837116463313e-01 1.7170100158338714e-01  4.5954731300729323e-01 2.3110800901868367e-01 1.7172463569641433e-01  4.5954991238359488e-01 2.3114622578207328e-01 1.7171714953190426e-01  4.5955287803134726e-01 2.3118989651759791e-01 1.7170856669082946e-01  4.5956211080080628e-01 2.3132567925234238e-01 1.7168194742459367e-01  4.5957397360948532e-01 2.3149996660528041e-01 1.7164784054265969e-01  4.5958933553705450e-01 2.3172558922974409e-01 1.7160370113675003e-01  4.5960738992444100e-01 2.3199063004466239e-01 1.7155187639550221e-01  4.5962769386149716e-01 2.3228849257477549e-01 1.7149368249591732e-01  4.5964964762288263e-01 2.3261032591178069e-01 1.7143085808108385e-01  4.5967325190613068e-01 2.3295588343232196e-01 1.7136354432540485e-01  4.5969803482721461e-01 2.3331814675028567e-01 1.7129314488046496e-01  4.5972361274606804e-01 2.3369136198201704e-01 1.7122082897631086e-01  4.5975034722814173e-01 2.3408045794254809e-01 1.7114577317588545e-01  4.5980472253024363e-01 2.3486874187729323e-01 1.7099476342701356e-01  4.5983044674781964e-01 2.3524011515780363e-01 1.7092415250554929e-01  4.5985635842102718e-01 2.3561294747083991e-01 1.7085370661885635e-01  4.5988246618021361e-01 2.3598733657938267e-01 1.7078341700039976e-01  4.5990859789597432e-01 2.3636079564815782e-01 1.7071375553256746e-01  4.5993454986577192e-01 2.3673043461244003e-01 1.7064525340321712e-01  4.5996034842809019e-01 2.3709653869652136e-01 1.7057789661821945e-01  4.5998553899461109e-01 2.3745269344280773e-01 1.7051285575335445e-01  4.6000943740805417e-01 2.3778930838430196e-01 1.7045185777924693e-01  4.6003115400448968e-01 2.3809401844694389e-01 1.7039709185462990e-01  4.6004889838718510e-01 2.3834202625051928e-01 1.7035290123382379e-01  4.6006936654314362e-01 2.3862548223135283e-01 1.7030349921441890e-01  4.6009293283426550e-01 2.3894960065552256e-01 1.7024793822983597e-01  4.6012874431094336e-01 2.3944116257211931e-01 1.7016397980427661e-01  4.6025625155500927e-01 2.4118530810490624e-01 1.6986768830959431e-01  4.6032193197960458e-01 2.4207944844550036e-01 1.6971704282574510e-01  4.6038703316413027e-01 2.4296197380664206e-01 1.6956957473766157e-01  4.6045264426561228e-01 2.4384739568823219e-01 1.6942299774733760e-01  4.6051889729516077e-01 2.4473723468903927e-01 1.6927717687589744e-01  4.6058563797123525e-01 2.4562922998716752e-01 1.6913256128801699e-01  4.6065255603843824e-01 2.4651912095156403e-01 1.6898988658539291e-01  4.6071929994426475e-01 2.4740224613844952e-01 1.6884989695942157e-01  4.6078529489411996e-01 2.4827097995494521e-01 1.6871381609875630e-01  4.6085024167416633e-01 2.4912142068303489e-01 1.6858225889819969e-01  4.6091292193229694e-01 2.4993797645468868e-01 1.6845751054372643e-01  4.6097192716117225e-01 2.5070262789068537e-01 1.6834223143488497e-01  4.6107028164634195e-01 2.5196628633131513e-01 1.6815609828050759e-01  4.6112898486270792e-01 2.5271439261688206e-01 1.6804835378787281e-01  4.6119293323334648e-01 2.5352578292483152e-01 1.6793282884244420e-01  4.6125993729633891e-01 2.5437232139674021e-01 1.6781362400174826e-01  4.6132879318302417e-01 2.5523884178906237e-01 1.6769280432960368e-01  4.6139857607447959e-01 2.5611400445781807e-01 1.6757178434633233e-01  4.6146942527160578e-01 2.5699987113811906e-01 1.6745010861865278e-01  4.6160485403783841e-01 2.5869138562227473e-01 1.6721752789278108e-01  4.6164701826413074e-01 2.5921896219861684e-01 1.6714426392076684e-01  4.6167547459876973e-01 2.5957667062934808e-01 1.6709375969320800e-01  4.6169465294194934e-01 2.5981911463863683e-01 1.6705888918920841e-01  4.6170594578383645e-01 2.5996365902146945e-01 1.6703729308585999e-01  4.6171137977043375e-01 2.6003503528177002e-01 1.6702582267050972e-01  4.6171289912896357e-01 2.6005683174158600e-01 1.6702152679959756e-01  4.6171450615114962e-01 2.6007603329131623e-01 1.6701926950425716e-01  4.6172194083040957e-01 2.6016146956400499e-01 1.6701084320555870e-01  4.6173778210594918e-01 2.6034494828177579e-01 1.6699204734110648e-01  4.6176389712849542e-01 2.6064823399173453e-01 1.6696059104263120e-01  4.6180304855497467e-01 2.6110353123687180e-01 1.6691306090626973e-01  4.6185782154552890e-01 2.6174057778621401e-01 1.6684645361364411e-01  4.6193149572096098e-01 2.6259662776720222e-01 1.6675715142396896e-01  4.6203002490269046e-01 2.6373978513202961e-01 1.6663819595928003e-01  4.6216858991074466e-01 2.6534454183890671e-01 1.6647128852533957e-01  4.6269622896807067e-01 2.7142807908435540e-01 1.6583939002772352e-01  4.6290087103667449e-01 2.7377032882883040e-01 1.6559936414132925e-01  4.6307706943819094e-01 2.7577398046632462e-01 1.6539802108167967e-01  4.6322678918977545e-01 2.7746470888013725e-01 1.6523253034363947e-01  4.6334648027592668e-01 2.7880691304648186e-01 1.6510512006515241e-01  4.6346199431455776e-01 2.8008473134504447e-01 1.6499246777619661e-01  4.6355659168118263e-01 2.8111821257113423e-01 1.6490771314151464e-01  4.6369869253792517e-01 2.8266371418138292e-01 1.6478341436985386e-01  4.6423948541185300e-01 2.8850257842988702e-01 1.6432499976804529e-01  4.6447782836216817e-01 2.9105246928795214e-01 1.6413134028848231e-01  4.6469270838177040e-01 2.9333622538406495e-01 1.6396270110842984e-01  4.6489544378429148e-01 2.9547695003666996e-01 1.6380952003082536e-01  4.6509088421845507e-01 2.9752737585372213e-01 1.6366769203942641e-01  4.6528300817850410e-01 2.9953062621944848e-01 1.6353370584081983e-01  4.6547807459346546e-01 3.0155268706481730e-01 1.6340270822314168e-01  4.6589842267718989e-01 3.0587617456666877e-01 1.6313371989286360e-01  4.6603417351970705e-01 3.0726331874008095e-01 1.6305022563752783e-01  4.6613668887557930e-01 3.0830691429281837e-01 1.6298883214094395e-01  4.6621145838977313e-01 3.0906529706835134e-01 1.6294539544324990e-01  4.6628815496869347e-01 3.0983738273837091e-01 1.6290422229739246e-01  4.6634429829403379e-01 3.1039783769321788e-01 1.6287688678646986e-01  4.6641152862295937e-01 3.1106664178295845e-01 1.6284539311553989e-01  4.6648597169525552e-01 3.1180486223757087e-01 1.6281167447539097e-01  4.6656378154244404e-01 3.1257405669745697e-01 1.6277758774498977e-01  4.6664345743370050e-01 3.1335942648179221e-01 1.6274371924970751e-01  4.6672344010986860e-01 3.1414566949682965e-01 1.6271067730015587e-01  4.6680195008617920e-01 3.1491535745375532e-01 1.6267917447802249e-01  4.6687697702841008e-01 3.1564901777326820e-01 1.6264991423834882e-01  4.6701610763233509e-01 3.1700398440733912e-01 1.6259827037463140e-01  4.6709799263435930e-01 3.1779817385624792e-01 1.6256941440454234e-01  4.6718336716642600e-01 3.1862410176828221e-01 1.6254026542455016e-01  4.6727114646144557e-01 3.1947114666466542e-01 1.6251121535201596e-01  4.6736027202345692e-01 3.2032909361995981e-01 1.6248259680599761e-01  4.6745001932429459e-01 3.2119092017700457e-01 1.6245465633853254e-01  4.6754011812717988e-01 3.2205404665448062e-01 1.6242746236308658e-01  4.6763018120289890e-01 3.2291478360136405e-01 1.6240112056683484e-01  4.6771977650764079e-01 3.2376904555884739e-01 1.6237573809912942e-01  4.6780888714038449e-01 3.2461670567009204e-01 1.6235130542326778e-01  4.6789732122158600e-01 3.2545601001102925e-01 1.6232784357310215e-01  4.6798480631171069e-01 3.2628444309049376e-01 1.6230539619730841e-01  4.6807161798233077e-01 3.2710466315753173e-01 1.6228387372573730e-01  4.6815715445760087e-01 3.2791100378580934e-01 1.6226342275357800e-01  4.6824212071518917e-01 3.2871025164518475e-01 1.6224380745724359e-01  4.6840540437364486e-01 3.3024153235106390e-01 1.6220799403962510e-01  4.6848167793912032e-01 3.3095472036260887e-01 1.6219211811820586e-01  4.6855659220572032e-01 3.3165395411167786e-01 1.6217702611742402e-01  4.6863068550756165e-01 3.3234426018901775e-01 1.6216260922024864e-01  4.6870435987713610e-01 3.3302953244670658e-01 1.6214871103800654e-01  4.6877904467589865e-01 3.3372311361567525e-01 1.6213502410031980e-01  4.6885803698414674e-01 3.3445559417829446e-01 1.6212091307416937e-01  4.6904155496308947e-01 3.3615397502691657e-01 1.6208905810794758e-01  4.6910294563658766e-01 3.3672115872297359e-01 1.6207864382702442e-01  4.6915228212728011e-01 3.3717658026917535e-01 1.6207038445050992e-01  4.6919352038836526e-01 3.3755696728725654e-01 1.6206357593257720e-01  4.6922841423565553e-01 3.3787863572647209e-01 1.6205789146725472e-01  4.6925773356097267e-01 3.3814878325857212e-01 1.6205317244938311e-01  4.6928189098938378e-01 3.3837129205215138e-01 1.6204932151413343e-01  4.6930089071160330e-01 3.3854626227583812e-01 1.6204631175856979e-01  4.6932222328620871e-01 3.3874272684842160e-01 1.6204294380035400e-01  4.6933433028641997e-01 3.3885428322678973e-01 1.6204101709079138e-01  4.6934753222555803e-01 3.3897602304928115e-01 1.6203887477338053e-01  4.6937605442343866e-01 3.3923971481012893e-01 1.6203392825429475e-01  4.6938467993957561e-01 3.3931991816297202e-01 1.6203221683815677e-01  4.6939030719194813e-01 3.3937267432074725e-01 1.6203089899493076e-01  4.6939355395938570e-01 3.3940368803185034e-01 1.6202987098993910e-01  4.6939462408655225e-01 3.3941485562672863e-01 1.6202909168690319e-01  4.6939369245964890e-01 3.3940780582706381e-01 1.6202852469111328e-01  4.6939070927451343e-01 3.3938214036626801e-01 1.6202814841596244e-01  4.6937723788807023e-01 3.3926305358023562e-01 1.6202792550710632e-01  4.6937070452792062e-01 3.3920480626900479e-01 1.6202804259681347e-01  4.6936446532984494e-01 3.3914902091133498e-01 1.6202822694869323e-01  4.6935846879539123e-01 3.3909529808197442e-01 1.6202845218676565e-01  4.6935274841067454e-01 3.3904397397254238e-01 1.6202870061476637e-01  4.6934735624941382e-01 3.3899554035851198e-01 1.6202895888640356e-01  4.6934236258061501e-01 3.3895064683019654e-01 1.6202921535040082e-01  4.6933784182600480e-01 3.3890997740461071e-01 1.6202945947858391e-01  4.6933383969476034e-01 3.3887395462016101e-01 1.6202968380449015e-01  4.6933042026155913e-01 3.3884316503899814e-01 1.6202988036265301e-01  4.6932760765902071e-01 3.3881783258829157e-01 1.6203004491637260e-01  4.6932545009986609e-01 3.3879839771634479e-01 1.6203017189850810e-01  4.6932395814708844e-01 3.3878495903360428e-01 1.6203025924218373e-01  4.6932309440422754e-01 3.3877717969114324e-01 1.6203030934313517e-01  4.6932218999535330e-01 3.3876898896812585e-01 1.6203038463078198e-01  4.6931995679181604e-01 3.3874871913281068e-01 1.6203059323224417e-01  4.6931609027094345e-01 3.3871362516927245e-01 1.6203095363567596e-01  4.6931055812694666e-01 3.3866341052393711e-01 1.6203146994045142e-01  4.6930312903532090e-01 3.3859597538443709e-01 1.6203216261896047e-01  4.6928558577980484e-01 3.3843670008202764e-01 1.6203380914145754e-01  4.6929002882076620e-01 3.3847715147715546e-01 1.6203332927015010e-01  4.6929159540847454e-01 3.3849145878919701e-01 1.6203313395738750e-01  4.6929238763253922e-01 3.3849871106120244e-01 1.6203302513070453e-01  4.6929282015391199e-01 3.3850267489253305e-01 1.6203296314396284e-01  4.6929277937629410e-01 3.3850230113693452e-01 1.6203296901677872e-01  4.6929222871581905e-01 3.3849725210060816e-01 1.6203304940069130e-01  4.6929156838662139e-01 3.3849117555860503e-01 1.6203315840290672e-01  4.6925500091781314e-01 3.3815857779401920e-01 1.6203689841903435e-01  4.6923718895368566e-01 3.3799658047241415e-01 1.6203869453683659e-01  4.6921869081094114e-01 3.3782827918692077e-01 1.6204058125080859e-01  4.6919905562342917e-01 3.3764955423989296e-01 1.6204261305866258e-01  4.6917803769428146e-01 3.3745815046971672e-01 1.6204482340682105e-01  4.6915547686404474e-01 3.3725259175450878e-01 1.6204723548389013e-01  4.6913107147993710e-01 3.3703010950840773e-01 1.6204988759476552e-01  4.6910427019110507e-01 3.3678565474933303e-01 1.6205284436747236e-01  4.6907379423890433e-01 3.3650753199335653e-01 1.6205625104548976e-01  4.6899428289634437e-01 3.3578128157444165e-01 1.6206530183243104e-01  4.6896260473764156e-01 3.3549168093389359e-01 1.6206897316916596e-01  4.6893396002266913e-01 3.3522966693001172e-01 1.6207233480701921e-01  4.6890737594636445e-01 3.3498636429196321e-01 1.6207550016971009e-01  4.6888230816806026e-01 3.3475681306736738e-01 1.6207852965871697e-01  4.6885862833179304e-01 3.3453985230202327e-01 1.6208143593664906e-01  4.6883626196081196e-01 3.3433481572471713e-01 1.6208422322398722e-01  4.6881521590836350e-01 3.3414178208565010e-01 1.6208688523477566e-01  4.6879555190974115e-01 3.3396133393726218e-01 1.6208940839646094e-01  4.6877744831632384e-01 3.3379512429330277e-01 1.6209176406920200e-01  4.6876114515804912e-01 3.3364537484365436e-01 1.6209391487499294e-01  4.6874714834213094e-01 3.3351675276205622e-01 1.6209578704559621e-01  4.6872759188233820e-01 3.3333691201097759e-01 1.6209846803724415e-01  4.6871388648109236e-01 3.3321079088197508e-01 1.6210038972959170e-01  4.6869773427210920e-01 3.3306210436043765e-01 1.6210267204266601e-01  4.6867856506995120e-01 3.3288559756469233e-01 1.6210538986759357e-01  4.6863847325743208e-01 3.3251641575838076e-01 1.6211102514119927e-01  4.6863491603883067e-01 3.3248368621266555e-01 1.6211150240103189e-01  4.6863377022214869e-01 3.3247315332581234e-01 1.6211164886115886e-01  4.6863374757231768e-01 3.3247294515384662e-01 1.6211165172320208e-01  4.6863427848657263e-01 3.3247781612229521e-01 1.6211159052485377e-01  4.6863416689569154e-01 3.3247675771187202e-01 1.6211162720676575e-01  4.6863182433261341e-01 3.3245514021053996e-01 1.6211198363761095e-01  4.6861989552979200e-01 3.3234517060087454e-01 1.6211371832159124e-01  4.6861494345808563e-01 3.3229953484749025e-01 1.6211442524111075e-01  4.6861164341293915e-01 3.3226913473188779e-01 1.6211488807115401e-01  4.6860974037883346e-01 3.3225160944058763e-01 1.6211515108199459e-01  4.6860913054475145e-01 3.3224599367958457e-01 1.6211523515115664e-01  4.6860952551929302e-01 3.3224962834599703e-01 1.6211518238428074e-01  4.6861063983230028e-01 3.3225988183820881e-01 1.6211503397603472e-01  4.6861204453701760e-01 3.3227279125262721e-01 1.6211485752088883e-01  4.6860285137389562e-01 3.3218781743017511e-01 1.6211633130847392e-01  4.6859429547503340e-01 3.3210884330046170e-01 1.6211762710620481e-01  4.6858677846179375e-01 3.3203945526049705e-01 1.6211876397459860e-01  4.6858043276254563e-01 3.3198087253976061e-01 1.6211972555189136e-01  4.6857558185442272e-01 3.3193608340918007e-01 1.6212046306271499e-01  4.6857071995308769e-01 3.3189117323055756e-01 1.6212121364404863e-01  4.6856708096216193e-01 3.3185753965065651e-01 1.6212178741967176e-01  4.6856254187