<?xml version="1.0"?>
<VTKFile type="UnstructuredGrid"  version="0.1"  >
<UnstructuredGrid>
<Piece  NumberOfPoints="7288" NumberOfCells="14083">
<Points>
<DataArray  type="Float64"  NumberOfComponents="3"  format="ascii">239.8 188 0  250.2 180 0  258.2 172.4 0  257 169.4 0  259.9 157.4 0  258.7 150.3 0  261 143.5 0  251.7 144.4 0  250 138.7 0  247 138.1 0  245.2 130.8 0  247.3 126.4 0  242.7 118.6 0  231.2 107.7 0  226 102.4 0  226.5 93.90000000000001 0  224.5 91.19999999999999 0  224.5 84.09999999999999 0  234.5 73.80000000000001 0  228.4 68.90000000000001 0  230 70 0  233.4 68 0  222.7 61.5 0  220.6 45.5 0  223.4 49.40000000000001 0  224 47 0  221.8 43.09999999999999 0  221 38.40000000000001 0  219.5 38.5 0  219.4 41.69999999999999 0  217.1 36.90000000000001 0  209.7 36 0  209.5 31.69999999999999 0  205.1 29.90000000000001 0  201.5 30.40000000000001 0  199.2 38.69999999999999 0  201.8 41.40000000000001 0  194.8 53.80000000000001 0  196.1 57.69999999999999 0  193 59 0  191.4 66.09999999999999 0  193.5 66.5 0  194.1 64.40000000000001 0  195.6 64.69999999999999 0  195.4 72.40000000000001 0  199.5 77.30000000000001 0  197.7 86.90000000000001 0  200.6 87.5 0  201.5 91 0  198 94.80000000000001 0  198.6 100 0  197.3 105.4 0  198 109.5 0  197 112.7 0  198.3 116.1 0  201.3 122 0  207.2 121 0  208.1 126.7 0  205.6 127.9 0  209.1 134.9 0  210.9 144.4 0  210.1 147.9 0  213 148.4 0  215.4 149.3 0  215.1 152.8 0  219.9 159.7 0  220.3 163.2 0  218.7 164.9 0  219.9 166.7 0  221.9 169.7 0  220 170.3 0  224.9 174.7 0  229.8 177.4 0  229.7 181 0  228 172.9 0  239 178 0  240.4 180 0  239 181.5 0  241.2 185.9 0  242.95 187.99 0  240.5875 187.9975 0  241.375 187.995 0  242.1625 187.9925 0  243.6090909090879 187.2636363636397 0  244.2681818181765 186.5372727272785 0  244.9272727272692 185.810909090913 0  245.5863636363531 185.0845454545571 0  246.245454545445 184.3581818181923 0  246.9045454545351 183.6318181818295 0  247.5636363636303 182.9054545454612 0  248.2227272727197 182.1790909090992 0  248.8818181818179 181.4527272727275 0  249.5409090909066 180.7263636363664 0  250.8666666666961 179.3666666666387 0  251.5333333334033 178.7333333332668 0  252.2000000000994 178.0999999999055 0  252.8666666668011 177.466666666539 0  253.5333333335083 176.8333333331671 0  254.2000000002044 176.1999999998058 0  254.8666666669005 175.5666666664445 0  255.5333333336077 174.9333333330727 0  256.2000000002685 174.2999999997449 0  256.8666666668457 173.6666666664966 0  257.5333333334283 173.033333333243 0  257.9000000000077 171.6500000000191 0  257.6000000000015 170.9000000000038 0  257.2999999999954 170.1499999999885 0  257.2230769230778 168.4769230769195 0  257.4461538461543 167.5538461538442 0  257.6692307692309 166.6307692307688 0  257.8923076923074 165.7076923076935 0  258.115384615384 164.7846153846181 0  258.3384615384605 163.8615384615427 0  258.5615384615395 162.9384615384572 0  258.784615384616 162.0153846153819 0  259.0076923076926 161.0923076923065 0  259.2307692307691 160.1692307692311 0  259.4538461538457 159.2461538461558 0  259.6769230769222 158.3230769230804 0  259.750000000001 156.512500000006 0  259.6000000000014 155.6250000000082 0  259.4500000000029 154.7375000000176 0  259.3000000000018 153.8500000000108 0  259.1500000000007 152.962500000004 0  259.0000000000004 152.0750000000026 0  258.849999999999 151.187499999994 0  258.9875000000052 149.4499999999846 0  259.275000000002 148.5999999999941 0  259.5624999999954 147.7500000000135 0  259.849999999995 146.900000000015 0  260.1374999999945 146.0500000000164 0  260.4249999999913 145.2000000000259 0  260.7124999999948 144.3500000000154 0  260.0700000000398 143.5899999999961 0  259.1400000000573 143.6799999999944 0  258.2100000000351 143.7699999999966 0  257.2800000000262 143.8599999999975 0  256.350000000011 143.9499999999989 0  255.4199999999881 144.0400000000011 0  254.4899999999726 144.1300000000026 0  253.5599999999944 144.2200000000005 0  252.6300000000009 144.3099999999999 0  251.4166666666658 143.4499999999971 0  251.1333333333388 142.5000000000182 0  250.8500000000015 141.5500000000051 0  250.5666666666612 140.5999999999818 0  250.2833333333342 139.6500000000029 0  249.2500000000005 138.5500000000001 0  248.5000000000011 138.4000000000002 0  247.7499999999995 138.2499999999999 0  246.7750000000005 137.1875000000023 0  246.5500000000021 136.2750000000085 0  246.3250000000036 135.3625000000147 0  246.1000000000042 134.450000000017 0  245.8750000000022 133.5375000000088 0  245.650000000003 132.6250000000124 0  245.4250000000046 131.7125000000187 0  245.619999999996 129.9200000000084 0  246.0399999999992 129.0400000000017 0  246.4599999999987 128.1600000000028 0  246.8800000000001 127.2799999999997 0  246.8399999999988 125.6199999999979 0  246.3799999999984 124.8399999999973 0  245.9199999999991 124.0599999999985 0  245.4600000000036 123.2800000000062 0  245.0000000000049 122.5000000000082 0  244.5400000000036 121.7200000000062 0  244.0800000000033 120.9400000000056 0  243.6200000000016 120.1600000000027 0  243.1600000000012 119.3800000000021 0  241.9812499999996 117.9187499999997 0  241.2625000000007 117.2375000000007 0  240.5437500000017 116.5562500000017 0  239.8250000000041 115.875000000004 0  239.1062500000066 115.1937500000063 0  238.3875000000076 114.5125000000072 0  237.6687500000087 113.8312500000082 0  236.9500000000083 113.1500000000079 0  236.231250000008 112.4687500000076 0  235.512500000009 111.7875000000085 0  234.7937500000045 111.1062500000043 0  234.0750000000042 110.4250000000039 0  233.3562500000066 109.7437500000062 0  232.6375000000021 109.062500000002 0  231.9187500000031 108.381250000003 0  230.5500000000004 107.0375000000004 0  229.9000000000021 106.3750000000021 0  229.2500000000038 105.7125000000039 0  228.6000000000041 105.0500000000042 0  227.9500000000018 104.3875000000018 0  227.2999999999952 103.7249999999951 0  226.6500000000024 103.0625000000024 0  226.0555555555555 101.4555555555556 0  226.1111111111111 100.5111111111111 0  226.1666666666667 99.56666666666668 0  226.2222222222222 98.62222222222223 0  226.2777777777778 97.67777777777778 0  226.3333333333333 96.73333333333335 0  226.3888888888889 95.78888888888889 0  226.4444444444445 94.84444444444446 0  226 93.22499999999999 0  225.5000000000026 92.55000000000358 0  225.0000000000026 91.87500000000358 0  224.5 90.31250000000068 0  224.5 89.4250000000097 0  224.5 88.53750000001317 0  224.5 87.65000000001388 0  224.5 86.76250000001457 0  224.5 85.87500000001248 0  224.5 84.9874999999993 0  225.1666666666659 83.41333333333409 0  225.8333333333319 82.72666666666818 0  226.4999999999978 82.04000000000228 0  227.1666666666649 81.35333333333514 0  227.8333333333301 80.66666666667 0  228.4999999999942 79.980000000006 0  229.1666666666601 79.2933333333401 0  229.8333333333316 78.60666666666847 0  230.4999999999975 77.92000000000257 0  231.1666666666644 77.23333333333572 0  231.8333333333295 76.54666666667057 0  232.4999999999972 75.86000000000287 0  233.1666666666681 75.17333333333181 0  233.8333333333368 74.48666666666306 0  233.7499999999995 73.16666666666629 0  233.0000000000018 72.53333333333488 0  232.2500000000014 71.90000000000116 0  231.5000000000009 71.26666666666743 0  230.7500000000005 70.63333333333372 0  229.233333333333 68.75000000000006 0  230.0666666666665 68.60000000000004 0  230.8999999999995 68.45000000000009 0  231.7333333333325 68.30000000000015 0  232.566666666667 68.14999999999995 0  232.5499999999897 68.50000000000607 0  231.7 69 0  230.8500000000103 69.49999999999393 0  227.8300000000008 68.16000000000106 0  227.2600000000064 67.42000000000837 0  226.6900000000077 66.68000000001001 0  226.1200000000024 65.94000000000314 0  225.5500000000108 65.20000000001409 0  224.9800000000098 64.46000000001268 0  224.4100000000007 63.72000000000098 0  223.8399999999971 62.97999999999621 0  223.2699999999993 62.23999999999915 0  222.753846153846 60.56923076923239 0  222.8076923076921 59.63846153846478 0  222.8615384615381 58.70769230769827 0  222.9153846153842 57.77692307693071 0  222.9692307692302 56.84615384616315 0  223.0230769230761 55.91538461539836 0  223.0769230769224 54.98461538462665 0  223.1307692307688 54.05384615385345 0  223.184615384615 53.12307692308312 0  223.2384615384611 52.19230769231556 0  223.2923076923071 51.26153846154906 0  223.3461538461533 50.33076923077847 0  222.8400000000024 48.62000000000327 0  222.2800000000047 47.84000000000661 0  221.7200000000005 47.06000000000071 0  221.1600000000003 46.28000000000039 0  221.4500000000116 45.87500000000512 0  222.3 46.25 0  223.1499999999884 46.62499999999488 0  223.5600000000055 46.22000000000981 0  223.1199999999987 45.43999999999767 0  222.6800000000061 44.66000000001075 0  222.2399999999969 43.8799999999944 0  221.6400000000004 42.16000000000253 0  221.4800000000009 41.22000000000548 0  221.3200000000014 40.28000000000801 0  221.1600000000009 39.34000000000556 0  220.25 38.45 0  219.4749999999999 39.30000000000165 0  219.45 40.09999999999999 0  219.425 40.90000000000112 0  219.0166666666641 40.89999999999463 0  218.6333333333375 40.10000000000875 0  218.2500000000016 39.30000000000339 0  217.8666666666635 38.49999999999351 0  217.483333333337 37.70000000000762 0  216.1750000000165 36.78750000000201 0  215.2500000000275 36.67500000000335 0  214.3250000000385 36.56250000000469 0  213.4000000000277 36.45000000000337 0  212.4750000000059 36.33750000000072 0  211.5499999999838 36.22499999999803 0  210.6249999999835 36.11249999999799 0  209.6600000000001 35.14000000000318 0  209.6200000000001 34.28000000000268 0  209.5800000000001 33.42000000000284 0  209.5399999999998 32.55999999999681 0  208.6200000000117 31.34000000000476 0  207.7400000000138 30.98000000000564 0  206.8600000000162 30.62000000000662 0  205.9800000000174 30.26000000000711 0  204.2000000000054 30.02499999999925 0  203.2999999999946 30.15000000000076 0  202.3999999999945 30.27500000000076 0  201.2444444444438 31.32222222222468 0  200.9888888888895 32.24444444
[...]
<PointData  Vectors="f_12"> 
<DataArray  type="Float64"  Name="f_12"  NumberOfComponents="3" format="ascii">5.7700985520868353e-01 4.6563524325471517e-01 5.9843064245678934e-01  5.7700972023286978e-01 4.6563309053844970e-01 5.9843178620059789e-01  5.7700930504458103e-01 4.6562516381870755e-01 5.9843630442247753e-01  5.7700886283445574e-01 4.6561477555198694e-01 5.9844259374011877e-01  5.7700293446208062e-01 4.6540348131225334e-01 5.9858105328308497e-01  5.7699503856837153e-01 4.6489949629696192e-01 5.9893256281306317e-01  5.7699283559193282e-01 4.6479188200185506e-01 5.9900576551581697e-01  5.7695449361078577e-01 4.6101292393783633e-01 6.0173865921241410e-01  5.7678684185268803e-01 4.5208066038891953e-01 6.0802541611525596e-01  5.7645984251728644e-01 4.4321024095352435e-01 6.1387156164148915e-01  5.7255882501066235e-01 3.8794261129667995e-01 6.4404638026510785e-01  5.6937479801213420e-01 3.5891014230863671e-01 6.5550339424701010e-01  5.5801599891030107e-01 2.9751916827590885e-01 6.6267407846813298e-01  5.2163453502279988e-01 1.8912490015526887e-01 5.8954398503362626e-01  5.1177653311907845e-01 1.7322670943824509e-01 5.5323252574234172e-01  5.0954169839271946e-01 1.6987711960023916e-01 5.4426360234198279e-01  5.0941667858989825e-01 1.6973734822674119e-01 5.4373508176562446e-01  5.0885777395335141e-01 1.6960925895911450e-01 5.4124151352886707e-01  5.0663486761415999e-01 1.6867643134404245e-01 5.3133887044460659e-01  5.0685581012314584e-01 1.6925515386288942e-01 5.3216095610329828e-01  5.0673638404301391e-01 1.6901365479051705e-01 5.3169134396387163e-01  5.0657268075685946e-01 1.6891337513516549e-01 5.3096399068202982e-01  5.0665632150597173e-01 1.7133119743332428e-01 5.3047032585940623e-01  5.0439360487003460e-01 1.7529897757169891e-01 5.1816377056425944e-01  5.0416289900212041e-01 1.7385941190482515e-01 5.1763466963154114e-01  5.0368426411182032e-01 1.7543078942775722e-01 5.1467213056786576e-01  5.0424381547673403e-01 1.7571126525494418e-01 5.1727176103949135e-01  5.0376296761990658e-01 1.7592517767837065e-01 5.1484958616251597e-01  5.0377196961109849e-01 1.7592765974086708e-01 5.1489204532155186e-01  5.0508267509534754e-01 1.7625965775302593e-01 5.2106641090560180e-01  5.0885978011739863e-01 1.7867786025127899e-01 5.3792815433009555e-01  5.1731666680365318e-01 1.8709777525148802e-01 5.7189579759917797e-01  5.2163460726077160e-01 1.9277155799146209e-01 5.8761562081523022e-01  5.2293109511520042e-01 1.9458708655583493e-01 5.9208774333890657e-01  5.2323814928940549e-01 1.9495763911454567e-01 5.9315892762395384e-01  5.2104718688009211e-01 1.9084619618739623e-01 5.8598564732899072e-01  5.1856641674046500e-01 1.8639222524807922e-01 5.7748798646861044e-01  5.1644631809787411e-01 1.7796351132675386e-01 5.7165680162948063e-01  5.1590880038990983e-01 1.7657532131195056e-01 5.6986501066300455e-01  5.1578836763496494e-01 1.7593146577826138e-01 5.6957763417331042e-01  5.1429675965809141e-01 1.7375250043957635e-01 5.6396119867122685e-01  5.1429945720851977e-01 1.7380936983583542e-01 5.6395178620444741e-01  5.1522450955587584e-01 1.7510254627150060e-01 5.6746531342626283e-01  5.1484998467689436e-01 1.7464938314336509e-01 5.6601980756275283e-01  5.1332886337234862e-01 1.7299452885629663e-01 5.6002380253491790e-01  5.1092149928362396e-01 1.7124419327414594e-01 5.5000025801699715e-01  5.0815761838476869e-01 1.6926656483715091e-01 5.3818480174622607e-01  5.0779913361413198e-01 1.6911502233780543e-01 5.3657950321229342e-01  5.0629080017727979e-01 1.6869172497341464e-01 5.2969713477544444e-01  5.0464531304443039e-01 1.6869865421468866e-01 5.2191224650869839e-01  5.0343671804326251e-01 1.6947357963222526e-01 5.1580275767955019e-01  5.0203246931098744e-01 1.7101361446516633e-01 5.0835472965449180e-01  5.0163357781398432e-01 1.7259981171692704e-01 5.0575526311816832e-01  5.0160871808154373e-01 1.7389341282340809e-01 5.0510916623259339e-01  5.0242299749257269e-01 1.7546840524430965e-01 5.0848947658800092e-01  5.0531084008661387e-01 1.7958818845600474e-01 5.2085582820302345e-01  5.1853748590855986e-01 2.0130939165001427e-01 5.7080853766031814e-01  5.4995315197883321e-01 2.8285704851801424e-01 6.4647267080950088e-01  5.5567822773565212e-01 3.0207394031759288e-01 6.5322305337664222e-01  5.6770421506958590e-01 3.6304995705613080e-01 6.4848753756414490e-01  5.7597249031241582e-01 4.3594310990481805e-01 6.1795471321700968e-01  5.7640056392773742e-01 4.4293718211673400e-01 6.1379068083937927e-01  5.7647306198228565e-01 4.4488368775111903e-01 6.1253355056762571e-01  5.7668099795130745e-01 4.5109358990341897e-01 6.0843854889609905e-01  5.7686576835485415e-01 4.5789342787234127e-01 6.0381822258646267e-01  5.7697120897286103e-01 4.6376045383012038e-01 5.9971212459320422e-01  5.7699270530041102e-01 4.6498668740171012e-01 5.9886032489931484e-01  5.7699757518717198e-01 4.6523234862058688e-01 5.9869184960256827e-01  5.7699983998707816e-01 4.6532943217300654e-01 5.9862647257730062e-01  5.7700323907315643e-01 4.6546061881938294e-01 5.9853931464231014e-01  5.7700274773190841e-01 4.6544652949478005e-01 5.9854823884050334e-01  5.7700650770962691e-01 4.6556268545723373e-01 5.9847367184565725e-01  5.7700905479412823e-01 4.6562062938147908e-01 5.9843884365907696e-01  5.7700934063344411e-01 4.6562671187746674e-01 5.9843525375410855e-01  5.7700707096056614e-01 4.6557375293616765e-01 5.9846728699616780e-01  5.7700942364955354e-01 4.6562756307555803e-01 5.9843491161776263e-01  5.7700969566055771e-01 4.6563256324114466e-01 5.9843209869705527e-01  5.7700977937186926e-01 4.6563403515409596e-01 5.9843128409642510e-01  5.7700984508848230e-01 4.6563509175854129e-01 5.9843072057046720e-01  5.7700985178596553e-01 4.6563519368596407e-01 5.9843066757893348e-01  5.7700985474897104e-01 4.6563523653012301e-01 5.9843064588309947e-01  5.7700985378684466e-01 4.6563522254924616e-01 5.9843065298163256e-01  5.7700985272599892e-01 4.6563520725373853e-01 5.9843066071516593e-01  5.7700984923006093e-01 4.6563515622611629e-01 5.9843068668407895e-01  5.7700984449533177e-01 4.6563508633754780e-01 5.9843072245982309e-01  5.7700983808981876e-01 4.6563499093341820e-01 5.9843077152116197e-01  5.7700983011163431e-01 4.6563487071578236e-01 5.9843083370422467e-01  5.7700982050139593e-01 4.6563472397614691e-01 5.9843091010108629e-01  5.7700980928293488e-01 4.6563455022912270e-01 5.9843100117759951e-01  5.7700979606950997e-01 4.6563434205192483e-01 5.9843111117869041e-01  5.7700978085584465e-01 4.6563409838299896e-01 5.9843124090062183e-01  5.7700976357302480e-01 4.6563381690918426e-01 5.9843139185940764e-01  5.7700974348424949e-01 4.6563348335398885e-01 5.9843157223828558e-01  5.7700969645999090e-01 4.6563268340294833e-01 5.9843200919214168e-01  5.7700967123202407e-01 4.6563224534214948e-01 5.9843225044073201e-01  5.7700964328425286e-01 4.6563175138459223e-01 5.9843252434210015e-01  5.7700961243955251e-01 4.6563119692540406e-01 5.9843283375603862e-01  5.7700957867191882e-01 4.6563057948974940e-01 5.9843318047207283e-01  5.7700954213929501e-01 4.6562990051974379e-01 5.9843356396897651e-01  5.7700950217134217e-01 4.6562914248828835e-01 5.9843399514105944e-01  5.7700945928773051e-01 4.6562831225560608e-01 5.9843447065537070e-01  5.7700941457460042e-01 4.6562742763851050e-01 5.9843498089894953e-01  5.7700936983599349e-01 4.6562652169758023e-01 5.9843550727094086e-01  5.7700932955615680e-01 4.6562568575518037e-01 5.9843599660009639e-01  5.7700927112872213e-01 4.6562439977296605e-01 5.9843676210041707e-01  5.7700919260062145e-01 4.6562260238693709e-01 5.9843784321763627e-01  5.7700906701963661e-01 4.6561966778991576e-01 5.9843961760613662e-01  5.7700857789883331e-01 4.6560773444137071e-01 5.9844690823545299e-01  5.7700829522462271e-01 4.6560045136933864e-01 5.9845141288622361e-01  5.7700798677411824e-01 4.6559213093511875e-01 5.9845660933373479e-01  5.7700764400070303e-01 4.6558243172325459e-01 5.9846272481501728e-01  5.7700726256149215e-01 4.6557109464590452e-01 5.9846993902853141e-01  5.7700683997007174e-01 4.6555788711082519e-01 5.9847841803123403e-01  5.7700637520329445e-01 4.6554259537523296e-01 5.9848831863353658e-01  5.7700586856685709e-01 4.6552502999408635e-01 5.9849978385469127e-01  5.7700532226137102e-01 4.6550502654786552e-01 5.9851294429529289e-01  5.7700473603487989e-01 4.6548226192107928e-01 5.9852804132510562e-01  5.7700412348967778e-01 4.6545707240482864e-01 5.9854486839195331e-01  5.7700349975244325e-01 4.6542979399025902e-01 5.9856322443778687e-01  5.7700232133282958e-01 4.6537248220153959e-01 5.9860223631561882e-01  5.7700153726676273e-01 4.6533041975018624e-01 5.9863114147521057e-01  5.7700063715947636e-01 4.6527920303137760e-01 5.9866652284188993e-01  5.7699964530985548e-01 4.6521916759107140e-01 5.9870821270418684e-01  5.7699858073208754e-01 4.6515076569784464e-01 5.9875593851143716e-01  5.7699746279312947e-01 4.6507490513396449e-01 5.9880908800957244e-01  5.7699629419528453e-01 4.6499172877279249e-01 5.9886756720834178e-01  5.7699408327885549e-01 4.6483343799129739e-01 5.9897891290602545e-01  5.7699343696016991e-01 4.6479033007808868e-01 5.9900908407692266e-01  5.7699304978856492e-01 4.6476922729720666e-01 5.9902360216439865e-01  5.7699282888207903e-01 4.6476173550722250e-01 5.9902846044753089e-01  5.7699274725361616e-01 4.6476561176758208e-01 5.9902524907935428e-01  5.7699275570508424e-01 4.6477573422294483e-01 5.9901765135397034e-01  5.7699280511640239e-01 4.6478673848532143e-01 5.9900953397447665e-01  5.7699275993028931e-01 4.6478149178771977e-01 5.9901333101054166e-01  5.7699246383096592e-01 4.6474230123390531e-01 5.9904183687935497e-01  5.7699186450481732e-01 4.6466525709607914e-01 5.9909784094536211e-01  5.7699088043727631e-01 4.6454170859268690e-01 5.9918762681193261e-01  5.7698937393623895e-01 4.6435795089097348e-01 5.9932113518393049e-01  5.7698716098131453e-01 4.6409758923662303e-01 5.9951022703184664e-01  5.7698392957724631e-01 4.6373519351782089e-01 5.9977323133892702e-01  5.7697908346538551e-01 4.6322556217162220e-01 6.0014258519560859e-01  5.7697114622861534e-01 4.6245959346005111e-01 6.0069640029210158e-01  5.7692865458431974e-01 4.5905822202016561e-01 6.0313937587697819e-01  5.7690404561050512e-01 4.5746107946681475e-01 6.0427564865918670e-01  5.7687560117100534e-01 4.5588688048078957e-01 6.0538599850648556e-01  5.7684381616099012e-01 4.5436297713761897e-01 6.0645120672815056e-01  5.7681148354461220e-01 4.5299551513018171e-01 6.0739842607871830e-01  5.7676568172599063e-01 4.5141049155553015e-01 6.0847768174301775e-01  5.7671499883170996e-01 4.4989784036029395e-01 6.0949046169503496e-01  5.7662666257793571e-01 4.4745658025159685e-01 6.1110521896673797e-01  5.7617384528692406e-01 4.3672697667606808e-01 6.1799560358878147e-01  5.7588984400821619e-01 4.3109314774869040e-01 6.2146463740446334e-01  5.7556327439811128e-01 4.2536720536032063e-01 6.2486749777727257e-01  5.7517650104329732e-01 4.1931492704624057e-01 6.2832718292233891e-01  5.7471387217887593e-01 4.1280776157893784e-01 6.3188750530607485e-01  5.7415855920173176e-01 4.0572515375595058e-01 6.3557776701659841e-01  5.7347932869492835e-01 3.9781176518645528e-01 6.3947884539288358e-01  5.7161145640035160e-01 3.7843620463965116e-01 6.4817504568250106e-01  5.7087058352136566e-01 3.7147094693771365e-01 6.5099851319033830e-01  5.7023474754967340e-01 3.6586290010873423e-01 6.5311795436829545e-01  5.6970927301481888e-01 3.6150691860186274e-01 6.5465326898083143e-01  5.6901339526576422e-01 3.5640985545256093e-01 6.5621378697313404e-01  5.6836487665037061e-01 3.5214732013847722e-01 6.5732161935170996e-01  5.6750949247561699e-01 3.4677251309834856e-01 6.5857695634103186e-01  5.6647301396894290e-01 3.4054422225477271e-01 6.5984349190371749e-01  5.6528791094308461e-01 3.3374779892863976e-01 6.6099263026845256e-01  5.6396869980771247e-01 3.2652560799968655e-01 6.6194227404060990e-01  5.6253628701105318e-01 3.1904251607421574e-01 6.6262072624257951e-01  5.6102129782033117e-01 3.1149456745165904e-01 6.6297478483597405e-01  5.5947218327420434e-01 3.0412906588542393e-01 6.6298211046979205e-01  5.5630797512108832e-01 2.9018309068189335e-01 6.6190005538627028e-01  5.5428245074280613e-01 2.8191971801376092e-01 6.6051951094666073e-01  5.5207599148144448e-01 2.7336146565104052e-01 6.5852314266276502e-01  5.4972267708609623e-01 2.6469873085324219e-01 6.5585360982439189e-01  5.4726640857040942e-01 2.5611207886113907e-01 6.5252340475219739e-01  5.4474342299622125e-01 2.4774691331082560e-01 6.4854955295470029e-01  5.4218158215373657e-01 2.3969359065950091e-01 6.4396759596191178e-01  5.3961292391724858e-01 2.3203953950627360e-01 6.3884512725746256e-01  5.3707172051997853e-01 2.2486271215795875e-01 6.3327863354009872e-01  5.3457723372985000e-01 2.1818770067111420e-01 6.2734420501903909e-01  5.3215304825334564e-01 2.1203849475332170e-01 6.2114732610215251e-01  5.2982298860891375e-01 2.0643585529207803e-01 6.1480249441535773e-01  5.2759080659005475e-01 2.0134622256855675e-01 6.0837200671512426e-01  5.2549095685448644e-01 1.9682003559207645e-01 6.0200268783333666e-01  5.2350611893764887e-01 1.9275922487402372e-01 5.9571207374475854e-01  5.2000753610152606e-01 1.8612101513747684e-01 5.8399459758785821e-01  5.1852969625260781e-01 1.8352311375437100e-01 5.7880121059886847e-01  5.1717851473802301e-01 1.8125653128996549e-01 5.7392869341489283e-01  5.1594871828643707e-01 1.7928961935067908e-01 5.6938398747149355e-01  5.1482759436220371e-01 1.7757626075633681e-01 5.6515229655875043e-01  5.1379547297262818e-01 1.7606194690161495e-01 5.6118284446751021e-01  5.1281819134300821e-01 1.7467597787125771e-01 5.5736081697499584e-01  5.1095680795445231e-01 1.7206914006458418e-01 5.4995848870993513e-01  5.1047563367408921e-01 1.7137618443723041e-01 5.4802544351713167e-01  5.1015349580453873e-01 1.7089948962984178e-01 5.4672633751647604e-01  5.0993213736120524e-01 1.7055898897631561e-01 5.4583240031651559e-01  5.0977985016206540e-01 1.7031258909316555e-01 5.4521795736631795e-01  5.0967752789118237e-01 1.7013568805744556e-01 5.4480655613179940e-01  5.0961044710783732e-01 1.7001081915200050e-01 5.4453825007124734e-01  5.0956710426594631e-01 1.6992586360614653e-01 5.4436544306286894e-01  5.0951941635403852e-01 1.6984634577209548e-01 5.4417103899544983e-01  5.0948884378313775e-01 1.6980869613564226e-01 5.4404275794957957e-01  5.0945487284302071e-01 1.6977245593974202e-01 5.4389867619589150e-01  5.0938380134776762e-01 1.6971291581033995e-01 5.4359254703983217e-01  5.0935497655665263e-01 1.6970054937833121e-01 5.4346525050367644e-01  5.0932071772519194e-01 1.6969328917786544e-01 5.4331218680412552e-01  5.0927590906282916e-01 1.6968751618294728e-01 5.4311118657836532e-01  5.0921644002184396e-01 1.6968041368749812e-01 5.4284438018576120e-01  5.0913659885233009e-01 1.6966921386524406e-01 5.4248655886253916e-01  5.0902898607201430e-01 1.6964991516634420e-01 5.4200517628650724e-01  5.0864016919473509e-01 1.6954059631703833e-01 5.4027491854220921e-01  5.0844300826432043e-01 1.6946880812664619e-01 5.3940052375621872e-01  5.0824565048702985e-01 1.6939119888975673e-01 5.3852528086038642e-01  5.0804660386271505e-01 1.6930899339937364e-01 5.3764191827644658e-01  5.0784797347393573e-01 1.6922430619970977e-01 5.3675936537205604e-01  5.0765298322509911e-01 1.6913942587851308e-01 5.3589172991032175e-01  5.0746524526734116e-01 1.6905648026899303e-01 5.3505505687238097e-01  5.0728856591850247e-01 1.6897749724529468e-01 5.3426643953912090e-01  5.0712665713620486e-01 1.6890452743922205e-01 5.3354265620259067e-01  5.0698312376671706e-01 1.6883928125485836e-01 5.3290016918297545e-01  5.0686112006007389e-01 1.6878343844957311e-01 5.3235342754971482e-01  5.0676358704176405e-01 1.6873829707968396e-01 5.3191601758868190e-01  5.0669278048244282e-01 1.6870503436333920e-01 5.3159836203170496e-01  5.0665001618509953e-01 1.6868468039411852e-01 5.3140649078070334e-01  5.0664123213033374e-01 1.6868712297253319e-01 5.3136471859266809e-01  5.0665518848819457e-01 1.6871660704159819e-01 5.3141924729223899e-01  5.0667562212876660e-01 1.6876511122948240e-01 5.3149716574258876e-01  5.0670103430525026e-01 1.6883182356863233e-01 5.3159175054136876e-01  5.0672631943425828e-01 1.6891542566929652e-01 5.3167965623700941e-01  5.0675886864601416e-01 1.6909389779344736e-01 5.3176732759074385e-01  5.0669184027366332e-01 1.6901306340592520e-01 5.3148397179445162e-01  5.0664140209264941e-01 1.6896816719840785e-01 5.3126491322897940e-01  5.0660558874950257e-01 1.6893917670294561e-01 5.3110827148374418e-01  5.0658329876171027e-01 1.6892168152878911e-01 5.3101055572594391e-01  5.0658543732253558e-01 1.6892335343286688e-01 5.3101993445769624e-01  5.0661527813014606e-01 1.6894652007931807e-01 5.3115083835308563e-01  5.0666359427840479e-01 1.6898195814926573e-01 5.3136345404009711e-01  5.0694372032425650e-01 1.6947852005885899e-01 5.3249010386329576e-01  5.0699639320887802e-01 1.6966739673879661e-01 5.3266743947922812e-01  5.0703104373048447e-01 1.6985068229595812e-01 5.3276278129447086e-01  5.0705069211601317e-01 1.7003465401028503e-01 5.3278794906311000e-01  5.0705426342393078e-01 1.7022163931713008e-01 5.3273708091317606e-01  5.0704070703674353e-01 1.7041333250032406e-01 5.3260456111153631e-01  5.0700610610402930e-01 1.7061181286971250e-01 5.3237116474576240e-01  5.0694351778009716e-01 1.7082059893845480e-01 5.3200284763427774e-01  5.0684134604952924e-01 1.7104892132812180e-01 5.3144135290730843e-01  5.0638819436008276e-01 1.7160426974848667e-01 5.2910999283325988e-01  5.0613458080476414e-01 1.7181815283800872e-01 5.2783589654820240e-01  5.0588065289094752e-01 1.7201656537279134e-01 5.2656188165337892e-01  5.0562759672554214e-01 1.7220860796737694e-01 5.2529018193280752e-01  5.0538197015161435e-01 1.7240044123760470e-01 5.2404970698059572e-01  5.0514657845387523e-01 1.7259344383201811e-01 5.2285368103001550e-01  5.0492624407858799e-01 1.7278846049753785e-01 5.2172528451991340e-01  5.0472514393206203e-01 1.7298504510028648e-01 5.2068531297087817e-01  5.0454758787437282e-01 1.7318176566772828e-01 5.1975576183430527e-01  5.0439704288740794e-01 1.7337547925000421e-01 5.1895529312639066e-01  5.0427924796478063e-01 1.7356208608362991e-01 5.1831398399035122e-01  5.0420050681362705e-01 1.7373364394291652e-01 5.1786614976694600e-01  5.0418113512897622e-01 1.7400639168116258e-01 5.1766417881791449e-01  5.0423663976907784e-01 1.7422363613176498e-01 5.1784535258950593e-01  5.0432009530636290e-01 1.7449501145636576e-01 5.1813904332423633e-01  5.0440515214623460e-01 1.7482988154677465e-01 5.1841325685387685e-01  5.0402814904478399e-01 1.7542797231303542e-01 5.1634259189087095e-01  5.0383145873257840e-01 1.7544080482274699e-01 5.1538338969789821e-01  5.0372474201534467e-01 1.7543475332384614e-01 5.1486736131538191e-01  5.0372247147076976e-01 1.7543460450811388e-01 5.1485638269275802e-01  5.0381418658700272e-01 1.7544788608473894e-01 5.1529675804494457e-01  5.0395063066718659e-01 1.7548530231207118e-01 5.1594407126862019e-01  5.0410361523167901e-01 1.7557028387358206e-01 5.1665127508243769e-01  5.0427864360350294e-01 1.7585200577612065e-01 5.1738085047286064e-01  5.0418133571010770e-01 1.7592424652760444e-01 5.1687849719503220e-01  5.0399655201638605e-01 1.7593873637223340e-01 5.1597687326128328e-01  5.0382992221491540e-01 1.7593053099376096e-01 5.1517225349673046e-01  5.0377162414565801e-01 1.7592682876347390e-01 5.1489079290653295e-01  5.0383150021588119e-01 1.7593608930516055e-01 5.1517693435029077e-01  5.0400346426785980e-01 1.7596387325213406e-01 5.1599724950677406e-01  5.0435184142771317e-01 1.7604222524722832e-01 5.1764463562904550e-01  5.0623734691589373e-01 1.7687287558069037e-01 5.2632919788517807e-01  5.0699286016345968e-01 1.7734098906924614e-01 5.2972481220824419e-01  5.0761823896167546e-01 1.7776436397886944e-01 5.3250172316510547e-01  5.0815956265676177e-01 1.7815106047827034e-01 5.3488226331739830e-01  5.0859723039692029e-01 1.7847697741798152e-01 5.3679098699180849e-01  5.0918050052859942e-01 1.7892782027623066e-01 5.3930356445725980e-01  5.0976456322470276e-01 1.7939761206593902e-01 5.4178863114943221e-01  5.1053332761