<?xml version="1.0"?>
<VTKFile type="UnstructuredGrid"  version="0.1"  >
<UnstructuredGrid>
<Piece  NumberOfPoints="7288" NumberOfCells="14083">
<Points>
<DataArray  type="Float64"  NumberOfComponents="3"  format="ascii">239.8 188 0  250.2 180 0  258.2 172.4 0  257 169.4 0  259.9 157.4 0  258.7 150.3 0  261 143.5 0  251.7 144.4 0  250 138.7 0  247 138.1 0  245.2 130.8 0  247.3 126.4 0  242.7 118.6 0  231.2 107.7 0  226 102.4 0  226.5 93.90000000000001 0  224.5 91.19999999999999 0  224.5 84.09999999999999 0  234.5 73.80000000000001 0  228.4 68.90000000000001 0  230 70 0  233.4 68 0  222.7 61.5 0  220.6 45.5 0  223.4 49.40000000000001 0  224 47 0  221.8 43.09999999999999 0  221 38.40000000000001 0  219.5 38.5 0  219.4 41.69999999999999 0  217.1 36.90000000000001 0  209.7 36 0  209.5 31.69999999999999 0  205.1 29.90000000000001 0  201.5 30.40000000000001 0  199.2 38.69999999999999 0  201.8 41.40000000000001 0  194.8 53.80000000000001 0  196.1 57.69999999999999 0  193 59 0  191.4 66.09999999999999 0  193.5 66.5 0  194.1 64.40000000000001 0  195.6 64.69999999999999 0  195.4 72.40000000000001 0  199.5 77.30000000000001 0  197.7 86.90000000000001 0  200.6 87.5 0  201.5 91 0  198 94.80000000000001 0  198.6 100 0  197.3 105.4 0  198 109.5 0  197 112.7 0  198.3 116.1 0  201.3 122 0  207.2 121 0  208.1 126.7 0  205.6 127.9 0  209.1 134.9 0  210.9 144.4 0  210.1 147.9 0  213 148.4 0  215.4 149.3 0  215.1 152.8 0  219.9 159.7 0  220.3 163.2 0  218.7 164.9 0  219.9 166.7 0  221.9 169.7 0  220 170.3 0  224.9 174.7 0  229.8 177.4 0  229.7 181 0  228 172.9 0  239 178 0  240.4 180 0  239 181.5 0  241.2 185.9 0  242.95 187.99 0  240.5875 187.9975 0  241.375 187.995 0  242.1625 187.9925 0  243.6090909090879 187.2636363636397 0  244.2681818181765 186.5372727272785 0  244.9272727272692 185.810909090913 0  245.5863636363531 185.0845454545571 0  246.245454545445 184.3581818181923 0  246.9045454545351 183.6318181818295 0  247.5636363636303 182.9054545454612 0  248.2227272727197 182.1790909090992 0  248.8818181818179 181.4527272727275 0  249.5409090909066 180.7263636363664 0  250.8666666666961 179.3666666666387 0  251.5333333334033 178.7333333332668 0  252.2000000000994 178.0999999999055 0  252.8666666668011 177.466666666539 0  253.5333333335083 176.8333333331671 0  254.2000000002044 176.1999999998058 0  254.8666666669005 175.5666666664445 0  255.5333333336077 174.9333333330727 0  256.2000000002685 174.2999999997449 0  256.8666666668457 173.6666666664966 0  257.5333333334283 173.033333333243 0  257.9000000000077 171.6500000000191 0  257.6000000000015 170.9000000000038 0  257.2999999999954 170.1499999999885 0  257.2230769230778 168.4769230769195 0  257.4461538461543 167.5538461538442 0  257.6692307692309 166.6307692307688 0  257.8923076923074 165.7076923076935 0  258.115384615384 164.7846153846181 0  258.3384615384605 163.8615384615427 0  258.5615384615395 162.9384615384572 0  258.784615384616 162.0153846153819 0  259.0076923076926 161.0923076923065 0  259.2307692307691 160.1692307692311 0  259.4538461538457 159.2461538461558 0  259.6769230769222 158.3230769230804 0  259.750000000001 156.512500000006 0  259.6000000000014 155.6250000000082 0  259.4500000000029 154.7375000000176 0  259.3000000000018 153.8500000000108 0  259.1500000000007 152.962500000004 0  259.0000000000004 152.0750000000026 0  258.849999999999 151.187499999994 0  258.9875000000052 149.4499999999846 0  259.275000000002 148.5999999999941 0  259.5624999999954 147.7500000000135 0  259.849999999995 146.900000000015 0  260.1374999999945 146.0500000000164 0  260.4249999999913 145.2000000000259 0  260.7124999999948 144.3500000000154 0  260.0700000000398 143.5899999999961 0  259.1400000000573 143.6799999999944 0  258.2100000000351 143.7699999999966 0  257.2800000000262 143.8599999999975 0  256.350000000011 143.9499999999989 0  255.4199999999881 144.0400000000011 0  254.4899999999726 144.1300000000026 0  253.5599999999944 144.2200000000005 0  252.6300000000009 144.3099999999999 0  251.4166666666658 143.4499999999971 0  251.1333333333388 142.5000000000182 0  250.8500000000015 141.5500000000051 0  250.5666666666612 140.5999999999818 0  250.2833333333342 139.6500000000029 0  249.2500000000005 138.5500000000001 0  248.5000000000011 138.4000000000002 0  247.7499999999995 138.2499999999999 0  246.7750000000005 137.1875000000023 0  246.5500000000021 136.2750000000085 0  246.3250000000036 135.3625000000147 0  246.1000000000042 134.450000000017 0  245.8750000000022 133.5375000000088 0  245.650000000003 132.6250000000124 0  245.4250000000046 131.7125000000187 0  245.619999999996 129.9200000000084 0  246.0399999999992 129.0400000000017 0  246.4599999999987 128.1600000000028 0  246.8800000000001 127.2799999999997 0  246.8399999999988 125.6199999999979 0  246.3799999999984 124.8399999999973 0  245.9199999999991 124.0599999999985 0  245.4600000000036 123.2800000000062 0  245.0000000000049 122.5000000000082 0  244.5400000000036 121.7200000000062 0  244.0800000000033 120.9400000000056 0  243.6200000000016 120.1600000000027 0  243.1600000000012 119.3800000000021 0  241.9812499999996 117.9187499999997 0  241.2625000000007 117.2375000000007 0  240.5437500000017 116.5562500000017 0  239.8250000000041 115.875000000004 0  239.1062500000066 115.1937500000063 0  238.3875000000076 114.5125000000072 0  237.6687500000087 113.8312500000082 0  236.9500000000083 113.1500000000079 0  236.231250000008 112.4687500000076 0  235.512500000009 111.7875000000085 0  234.7937500000045 111.1062500000043 0  234.0750000000042 110.4250000000039 0  233.3562500000066 109.7437500000062 0  232.6375000000021 109.062500000002 0  231.9187500000031 108.381250000003 0  230.5500000000004 107.0375000000004 0  229.9000000000021 106.3750000000021 0  229.2500000000038 105.7125000000039 0  228.6000000000041 105.0500000000042 0  227.9500000000018 104.3875000000018 0  227.2999999999952 103.7249999999951 0  226.6500000000024 103.0625000000024 0  226.0555555555555 101.4555555555556 0  226.1111111111111 100.5111111111111 0  226.1666666666667 99.56666666666668 0  226.2222222222222 98.62222222222223 0  226.2777777777778 97.67777777777778 0  226.3333333333333 96.73333333333335 0  226.3888888888889 95.78888888888889 0  226.4444444444445 94.84444444444446 0  226 93.22499999999999 0  225.5000000000026 92.55000000000358 0  225.0000000000026 91.87500000000358 0  224.5 90.31250000000068 0  224.5 89.4250000000097 0  224.5 88.53750000001317 0  224.5 87.65000000001388 0  224.5 86.76250000001457 0  224.5 85.87500000001248 0  224.5 84.9874999999993 0  225.1666666666659 83.41333333333409 0  225.8333333333319 82.72666666666818 0  226.4999999999978 82.04000000000228 0  227.1666666666649 81.35333333333514 0  227.8333333333301 80.66666666667 0  228.4999999999942 79.980000000006 0  229.1666666666601 79.2933333333401 0  229.8333333333316 78.60666666666847 0  230.4999999999975 77.92000000000257 0  231.1666666666644 77.23333333333572 0  231.8333333333295 76.54666666667057 0  232.4999999999972 75.86000000000287 0  233.1666666666681 75.17333333333181 0  233.8333333333368 74.48666666666306 0  233.7499999999995 73.16666666666629 0  233.0000000000018 72.53333333333488 0  232.2500000000014 71.90000000000116 0  231.5000000000009 71.26666666666743 0  230.7500000000005 70.63333333333372 0  229.233333333333 68.75000000000006 0  230.0666666666665 68.60000000000004 0  230.8999999999995 68.45000000000009 0  231.7333333333325 68.30000000000015 0  232.566666666667 68.14999999999995 0  232.5499999999897 68.50000000000607 0  231.7 69 0  230.8500000000103 69.49999999999393 0  227.8300000000008 68.16000000000106 0  227.2600000000064 67.42000000000837 0  226.6900000000077 66.68000000001001 0  226.1200000000024 65.94000000000314 0  225.5500000000108 65.20000000001409 0  224.9800000000098 64.46000000001268 0  224.4100000000007 63.72000000000098 0  223.8399999999971 62.97999999999621 0  223.2699999999993 62.23999999999915 0  222.753846153846 60.56923076923239 0  222.8076923076921 59.63846153846478 0  222.8615384615381 58.70769230769827 0  222.9153846153842 57.77692307693071 0  222.9692307692302 56.84615384616315 0  223.0230769230761 55.91538461539836 0  223.0769230769224 54.98461538462665 0  223.1307692307688 54.05384615385345 0  223.184615384615 53.12307692308312 0  223.2384615384611 52.19230769231556 0  223.2923076923071 51.26153846154906 0  223.3461538461533 50.33076923077847 0  222.8400000000024 48.62000000000327 0  222.2800000000047 47.84000000000661 0  221.7200000000005 47.06000000000071 0  221.1600000000003 46.28000000000039 0  221.4500000000116 45.87500000000512 0  222.3 46.25 0  223.1499999999884 46.62499999999488 0  223.5600000000055 46.22000000000981 0  223.1199999999987 45.43999999999767 0  222.6800000000061 44.66000000001075 0  222.2399999999969 43.8799999999944 0  221.6400000000004 42.16000000000253 0  221.4800000000009 41.22000000000548 0  221.3200000000014 40.28000000000801 0  221.1600000000009 39.34000000000556 0  220.25 38.45 0  219.4749999999999 39.30000000000165 0  219.45 40.09999999999999 0  219.425 40.90000000000112 0  219.0166666666641 40.89999999999463 0  218.6333333333375 40.10000000000875 0  218.2500000000016 39.30000000000339 0  217.8666666666635 38.49999999999351 0  217.483333333337 37.70000000000762 0  216.1750000000165 36.78750000000201 0  215.2500000000275 36.67500000000335 0  214.3250000000385 36.56250000000469 0  213.4000000000277 36.45000000000337 0  212.4750000000059 36.33750000000072 0  211.5499999999838 36.22499999999803 0  210.6249999999835 36.11249999999799 0  209.6600000000001 35.14000000000318 0  209.6200000000001 34.28000000000268 0  209.5800000000001 33.42000000000284 0  209.5399999999998 32.55999999999681 0  208.6200000000117 31.34000000000476 0  207.7400000000138 30.98000000000564 0  206.8600000000162 30.62000000000662 0  205.9800000000174 30.26000000000711 0  204.2000000000054 30.02499999999925 0  203.2999999999946 30.15000000000076 0  202.3999999999945 30.27500000000076 0  201.2444444444438 31.32222222222468 0  200.9888888888895 32.24444444
[...]
<PointData  Vectors="f_12"> 
<DataArray  type="Float64"  Name="f_12"  NumberOfComponents="3" format="ascii">4.9473319717515324e-01 3.4576838739420140e-01 3.6975728912864458e-01  4.9540077494850926e-01 3.5045939072363597e-01 3.7031188632885664e-01  4.9628347192162592e-01 3.5651599046344268e-01 3.7109411483480820e-01  4.9674962918472720e-01 3.5958879114534548e-01 3.7156529678085309e-01  5.0030784704110876e-01 3.8186558219359457e-01 3.7550872226792126e-01  5.0315444405897325e-01 3.9797495009540357e-01 3.7924695811569165e-01  5.0401603316719479e-01 4.0288326205753255e-01 3.8028166979901501e-01  5.0980274534011816e-01 4.2879811471392876e-01 3.9063503018519063e-01  5.1855178998926499e-01 4.6292487644693930e-01 4.0681582706161551e-01  5.2345395383709925e-01 4.7757759327431337e-01 4.1715266870797313e-01  5.4126015676529049e-01 5.1573449871217880e-01 4.5725854895546542e-01  5.4693029433930174e-01 5.2271861745184212e-01 4.7114797626922872e-01  5.5436440774287177e-01 5.2392765313114786e-01 4.9344532539734531e-01  5.6855219347109143e-01 5.0192181597757435e-01 5.5005295848558033e-01  5.7355188388835066e-01 4.8124763596870662e-01 5.7856316341329550e-01  5.7600485972841542e-01 4.6491249202771440e-01 5.9687955768098733e-01  5.7638390683071050e-01 4.6089865972781985e-01 6.0079966295207077e-01  5.7697825572606209e-01 4.5243433719572723e-01 6.0853118039017617e-01  5.7717605356702117e-01 4.4810699702018736e-01 6.1220732266412126e-01  5.7717588785309493e-01 4.4796598751942673e-01 6.1231044840117754e-01  5.7717713480533028e-01 4.4798740762937173e-01 6.1229788035622734e-01  5.7718078317654098e-01 4.4788735603281998e-01 6.1238058640322701e-01  5.7716431335326246e-01 4.4766309923324799e-01 6.1250337176784009e-01  5.7714119896762939e-01 4.4772582523624355e-01 6.1239781049753161e-01  5.7714766203780254e-01 4.4764754963005682e-01 6.1247189109917632e-01  5.7714106817306421e-01 4.4772829973519696e-01 6.1239556274480023e-01  5.7713981563773553e-01 4.4774464043623630e-01 6.1238040556762885e-01  5.7713936145681699e-01 4.4775263557453082e-01 6.1237329991482603e-01  5.7713935000035288e-01 4.4775277110323769e-01 6.1237317197703223e-01  5.7713780254953395e-01 4.4777080314187023e-01 6.1235610413620500e-01  5.7713061324686121e-01 4.4786387205242656e-01 6.1226964417321372e-01  5.7711890118835962e-01 4.4801415327135857e-01 6.1212987222939808e-01  5.7711367472363206e-01 4.4808502805816836e-01 6.1206465339826122e-01  5.7711221503556220e-01 4.4810442055551136e-01 6.1204673938081366e-01  5.7711185001254073e-01 4.4810877904695573e-01 6.1204262545468224e-01  5.7711395679656818e-01 4.4807372549984614e-01 6.1207375102100037e-01  5.7711668045128450e-01 4.4802894668875198e-01 6.1211362289641225e-01  5.7711787895665367e-01 4.4799416794908914e-01 6.1214317196827950e-01  5.7711974446293213e-01 4.4801038111756991e-01 6.1213624678929734e-01  5.7711992814288071e-01 4.4803225145066283e-01 6.1212081726220025e-01  5.7712535295420320e-01 4.4817902224482381e-01 6.1202684515103811e-01  5.7712541659174310e-01 4.4817953903083185e-01 6.1202660335738668e-01  5.7712223063949308e-01 4.4807314099145379e-01 6.1209666489954462e-01  5.7712374871939642e-01 4.4810620302470516e-01 6.1207621469041440e-01  5.7712729339107005e-01 4.4839686908776832e-01 6.1187142229680502e-01  5.7711354926050751e-01 4.4948084060024912e-01 6.1103903885427757e-01  5.7703653940922361e-01 4.5204358627873292e-01 6.0895720958885990e-01  5.7698890842563177e-01 4.5303880562465998e-01 6.0810467740823060e-01  5.7679166120025827e-01 4.5684036312002002e-01 6.0480144467436436e-01  5.7657947530438625e-01 4.6045692976250724e-01 6.0158615875369892e-01  5.7627654712164011e-01 4.6425298321824654e-01 5.9800930800288943e-01  5.7579681919973702e-01 4.6931785431800671e-01 5.9303467259325149e-01  5.7530674149545802e-01 4.7347404502362256e-01 5.8870382051739112e-01  5.7493338603095689e-01 4.7632230923147434e-01 5.8563546124928223e-01  5.7449318948783867e-01 4.7907200582467835e-01 5.8247529801895148e-01  5.7353600243269287e-01 4.8396235836743534e-01 5.7641495954149891e-01  5.7046709970888509e-01 4.9436254071436364e-01 5.6080703960481393e-01  5.6249338692326245e-01 5.1410290385655411e-01 5.2445306103652067e-01  5.6096069837262730e-01 5.1707184162997588e-01 5.1790905129685683e-01  5.5369212240016497e-01 5.2145242999944208e-01 4.9330558983416983e-01  5.3894294883695437e-01 5.1360634629178592e-01 4.5082354029642274e-01  5.3666390585885826e-01 5.1071596559163712e-01 4.4484347412226588e-01  5.3511352982281579e-01 5.0751565748295202e-01 4.4148256958147242e-01  5.2997765452079859e-01 4.9602671784345642e-01 4.3026030613565031e-01  5.2361241664963898e-01 4.7976994587044641e-01 4.1648252501491667e-01  5.1143066140608517e-01 4.3587292699042002e-01 3.9348215082012178e-01  5.0606371921813487e-01 4.1193221752676512e-01 3.8422771989499632e-01  5.0465317497038364e-01 4.0522718512320116e-01 3.8184710300494684e-01  5.0386257200257778e-01 4.0123180764708366e-01 3.8060373537689279e-01  5.0248458852203870e-01 3.9398915409862412e-01 3.7854636595667696e-01  5.0279260987850638e-01 3.9571719891714191e-01 3.7895030171800370e-01  5.0065758994695886e-01 3.8377491573826705e-01 3.7605421667126221e-01  4.9765774326656703e-01 3.6544390884112782e-01 3.7254366453225740e-01  4.9731577857412074e-01 3.6331035894633129e-01 3.7214177921109598e-01  4.9982001554022509e-01 3.7867186017712340e-01 3.7510567450982440e-01  4.9636212242725253e-01 3.5690325192767530e-01 3.7125721778733578e-01  4.9544908194816606e-01 3.5071968112476853e-01 3.7039898404403049e-01  4.9514108972184018e-01 3.4860850395148185e-01 3.7011558611383472e-01  4.9480177033894995e-01 3.4625011574318626e-01 3.6981550624099224e-01  4.9475961816364766e-01 3.4595496921339058e-01 3.6977917760408474e-01  4.9473661641748401e-01 3.4579248681854557e-01 3.6976015132224632e-01  4.9474396047445390e-01 3.4584430987074727e-01 3.6976626158773795e-01  4.9475228957603207e-01 3.4590316851041036e-01 3.6977313823620189e-01  4.9477832813585160e-01 3.4608697592071103e-01 3.6979472075809150e-01  4.9481189481672633e-01 3.4632372245543469e-01 3.6982260781322335e-01  4.9485540448650633e-01 3.4663051833341280e-01 3.6985871140812837e-01  4.9490662606490982e-01 3.4699154935098975e-01 3.6990116135579726e-01  4.9496437853007363e-01 3.4739838035648368e-01 3.6994898362812451e-01  4.9502699378405018e-01 3.4783921469365287e-01 3.7000075990008835e-01  4.9509466076833480e-01 3.4831506497649761e-01 3.7005678470077585e-01  4.9516606832197052e-01 3.4881662272266728e-01 3.7011597716924921e-01  4.9524016785450897e-01 3.4933639105201730e-01 3.7017749886312568e-01  4.9531826535270740e-01 3.4988306049966938e-01 3.7024267567577140e-01  4.9547888520419042e-01 3.5100396869093736e-01 3.7037766685545176e-01  4.9555573271007591e-01 3.5153853505604693e-01 3.7044276499956863e-01  4.9563401259197926e-01 3.5208146599799534e-01 3.7050968753171049e-01  4.9571380144978638e-01 3.5263318801076349e-01 3.7057855196688533e-01  4.9579461690783394e-01 3.5319026623149835e-01 3.7064898203787100e-01  4.9587584962895848e-01 3.5374845172314567e-01 3.7072047580387008e-01  4.9595778419048120e-01 3.5430940390407539e-01 3.7079345842566563e-01  4.9603899014098074e-01 3.5486328851994348e-01 3.7086669377691117e-01  4.9611723084155840e-01 3.5539487728435165e-01 3.7093817784843269e-01  4.9618953044230929e-01 3.5588408675916472e-01 3.7100518053883447e-01  4.9624966767839074e-01 3.5628926050987736e-01 3.7106176939809016e-01  4.9632249097890474e-01 3.5677469527192701e-01 3.7113309913792508e-01  4.9640939044576193e-01 3.5734936153225882e-01 3.7122050884511498e-01  4.9654263462233772e-01 3.5822802940323489e-01 3.7135522088579676e-01  4.9702320016890700e-01 3.6138017829300306e-01 3.7184412997155264e-01  4.9727536075810003e-01 3.6302202158939106e-01 3.7210336236890001e-01  4.9752970719547435e-01 3.6466732063255086e-01 3.7236787187889631e-01  4.9779095376482579e-01 3.6634537632515057e-01 3.7264317519332613e-01  4.9806007062767677e-01 3.6806111101661332e-01 3.7293083347600431e-01  4.9833681501282573e-01 3.6981176040721458e-01 3.7323104228767850e-01  4.9862022430751152e-01 3.7159012497500576e-01 3.7354314725367860e-01  4.9890904182193063e-01 3.7338747563586966e-01 3.7386608635491847e-01  4.9920101483598639e-01 3.7518881424099526e-01 3.7419771902797400e-01  4.9949526400119276e-01 3.7698761127607577e-01 3.7453766231332264e-01  4.9978587821543918e-01 3.7874810676911458e-01 3.7487899947449077e-01  5.0006624459017535e-01 3.8043026720103507e-01 3.7521426657380130e-01  5.0055439870637419e-01 3.8331117332518261e-01 3.7581737133372572e-01  5.0085811575630657e-01 3.8507488461299755e-01 3.7620387640937752e-01  5.0119602743434433e-01 3.8701877880071206e-01 3.7663986659790794e-01  5.0155772945095678e-01 3.8907917635913480e-01 3.7711287404688004e-01  5.0193655639463886e-01 3.9121654230652364e-01 3.7761396536593000e-01  5.0232654757298723e-01 3.9339735947329402e-01 3.7813441490097066e-01  5.0272756316623346e-01 3.9562150835785692e-01 3.7867305923903438e-01  5.0348910256041335e-01 3.9983210734914104e-01 3.7968406895534612e-01  5.0371919612899541e-01 4.0111160563377246e-01 3.7997965553356794e-01  5.0386689705704879e-01 4.0194646930082950e-01 3.8015949275257083e-01  5.0396029826413968e-01 4.0248643244739885e-01 3.8026512154924236e-01  5.0400796120584390e-01 4.0277838319271714e-01 3.8030866046888057e-01  5.0402366501903095e-01 4.0289362168686260e-01 3.8031116808986665e-01  5.0402093528092717e-01 4.0290121945544372e-01 3.8029361209992446e-01  5.0403267020476794e-01 4.0295935456906540e-01 3.8031279439342025e-01  5.0409977036479070e-01 4.0327183848809323e-01 3.8043473182050080e-01  5.0423645091726954e-01 4.0391353640581878e-01 3.8067928880871615e-01  5.0445707658213246e-01 4.0494937882223331e-01 3.8107228152929823e-01  5.0478296253348764e-01 4.0647386982634454e-01 3.8165202194345405e-01  5.0523518842602033e-01 4.0857397042336463e-01 3.8245758443101241e-01  5.0584227334264842e-01 4.1136124989911732e-01 3.8354232596796556e-01  5.0665517113717473e-01 4.1503825052300980e-01 3.8499822732895778e-01  5.0780195084781599e-01 4.2012758508959314e-01 3.8705264642268633e-01  5.1221176903363752e-01 4.3889704031260995e-01 3.9496983624614429e-01  5.1395858445861520e-01 4.4594832646450583e-01 3.9813939836626011e-01  5.1549182041621322e-01 4.5189095390785439e-01 4.0096144274484535e-01  5.1681901777898942e-01 4.5682856632379509e-01 4.0345254791213414e-01  5.1789831225613236e-01 4.6068922309414001e-01 4.0552398985326621e-01  5.1897104229777125e-01 4.6426430554306536e-01 4.0768281979170196e-01  5.1987170065132449e-01 4.6706610210810062e-01 4.0956562566689064e-01  5.2123648084875207e-01 4.7116636654710131e-01 4.1244471405245914e-01  5.2650106027029175e-01 4.8590110073426240e-01 4.2369130044282666e-01  5.2885708516741359e-01 4.9188545460880817e-01 4.2881208314689256e-01  5.3100207196586846e-01 4.9693702332352607e-01 4.3353867382674399e-01  5.3304320121764004e-01 5.0137934058164912e-01 4.3810601033403718e-01  5.3502521699180550e-01 5.0534582450250132e-01 4.4261480494398758e-01  5.3698457305727765e-01 5.0893868287024391e-01 4.4714477323993557e-01  5.3898173594942822e-01 5.1227887705463770e-01 4.5183331328102599e-01  5.4329120604397518e-01 5.1854580231437120e-01 4.6214755971915594e-01  5.4468127208024997e-01 5.2030321249512457e-01 4.6552909093081729e-01  5.4573179602372823e-01 5.2151404967166992e-01 4.6811833567904632e-01  5.4650006497361814e-01 5.2231759618180407e-01 4.7004418076432786e-01  5.4729942690961331e-01 5.2297792032118817e-01 4.7214707536795625e-01  5.4789524377328747e-01 5.2332566919998336e-01 4.7380198975261806e-01  5.4861255416133226e-01 5.2366780070980656e-01 4.7583668841877080e-01  5.4941002409287942e-01 5.2396491507477583e-01 4.7814236912078661e-01  5.5024721536533228e-01 5.2418457204608704e-01 4.8061105769547441e-01  5.5110728600590653e-01 5.2431648848106271e-01 4.8319488435451641e-01  5.5197306788876144e-01 5.2435396705269177e-01 4.8584450505635229e-01  5.5282545320672583e-01 5.2429380732225284e-01 4.8850420631729097e-01  5.5364167099632178e-01 5.2414366343096441e-01 4.9110053934277376e-01  5.5516036644023126e-01 5.2357670809513912e-01 4.9609274192820951e-01  5.5605527992112158e-01 5.2306338793918028e-01 4.9913674585814349e-01  5.5698681212762924e-01 5.2240592319424750e-01 5.0237565071618884e-01  5.5794033325916659e-01 5.2160134660523949e-01 5.0576578567624064e-01  5.5890278107145186e-01 5.2065548998834443e-01 5.0926450380286348e-01  5.5986472059157999e-01 5.1956992737760355e-01 5.1284309918411719e-01  5.6082113846570703e-01 5.1834656530298573e-01 5.1648620227418962e-01  5.6176636091851562e-01 5.1698986947703685e-01 5.2017540808926577e-01  5.6269486100822619e-01 5.1550671232294842e-01 5.2389151392124644e-01  5.6360451253019739e-01 5.1389919937130490e-01 5.2762827768833809e-01  5.6449238579592587e-01 5.1217403268437423e-01 5.3137437084292205e-01  5.6535527303019240e-01 5.1033926205953850e-01 5.3511681373895559e-01  5.6619402629035975e-01 5.0839313347188708e-01 5.3886062764111731e-01  5.6700299612322069e-01 5.0634583988538207e-01 5.4258419686346204e-01  5.6778769626461445e-01 5.0419166793516312e-01 5.4630865112180305e-01  5.6924152334466505e-01 4.9971345353807639e-01 5.5353952349615598e-01  5.6989442244609989e-01 4.9746439478226717e-01 5.5695019518592148e-01  5.7051942086156493e-01 4.9515858091155002e-01 5.6032098000244801e-01  5.7112009625611093e-01 4.9277599764357471e-01 5.6367633853480792e-01  5.7170124944605338e-01 4.9030996479791283e-01 5.6703426277538616e-01  5.7227392531160370e-01 4.8770951230314191e-01 5.7046118883269403e-01  5.7286199056392029e-01 4.8484600253844323e-01 5.7411350714406295e-01  5.7417229273583470e-01 4.7776599087949739e-01 5.8273604316464089e-01  5.7459490686891868e-01 4.7523105246489133e-01 5.8569185112068922e-01  5.7492881655532491e-01 4.7309798097717731e-01 5.8811808566874868e-01  5.7520457412728887e-01 4.7122641629577372e-01 5.9019945790009898e-01  5.7543629534282215e-01 4.6955877937326812e-01 5.9201642083467199e-01  5.7563071830420365e-01 4.6807548449113440e-01 5.9360185345388794e-01  5.7579167591698543e-01 4.6677460466747245e-01 5.9496773217096388e-01  5.7591973023094423e-01 4.6568021054545217e-01 5.9609821973508992e-01  5.7606834584605959e-01 4.6429713915909243e-01 5.9749416961007462e-01  5.7615729026904350e-01 4.6339414300925524e-01 5.9838552834989500e-01  5.7625915646489423e-01 4.6230530899578953e-01 5.9944662145659189e-01  5.7650869844505392e-01 4.5940792896915805e-01 6.0221416066261424e-01  5.7660308703301799e-01 4.5821163063414605e-01 6.0333412008209453e-01  5.7668226517733845e-01 4.5714732279389086e-01 6.0431787370346379e-01  5.7675136196368859e-01 4.5616408545844683e-01 6.0521605580771864e-01  5.7681269271963553e-01 4.5523908108610484e-01 6.0605146323004000e-01  5.7686840207079737e-01 4.5434995047621002e-01 6.0684597916859484e-01  5.7692072880767231e-01 4.5346529607384767e-01 6.0762840416464614e-01  5.7702758696490164e-01 4.5149572053616410e-01 6.0934517362414176e-01  5.7705964001170229e-01 4.5085254775833594e-01 6.0989833611473387e-01  5.7708402448788998e-01 4.5033948975679927e-01 6.1033649119404465e-01  5.7710342273015081e-01 4.4991321596344563e-01 6.1069830444001905e-01  5.7711917824334857e-01 4.4955290832150857e-01 6.1100249286071917e-01  5.7713210998417808e-01 4.4924619118686576e-01 6.1126022726894291e-01  5.7714274119808229e-01 4.4898547242552062e-01 6.1147840709590351e-01  5.7715144811395802e-01 4.4876542201276048e-01 6.1166189302842366e-01  5.7715853815784179e-01 4.4858146203169214e-01 6.1181481696719808e-01  5.7716421692913533e-01 4.4843077086556077e-01 6.1193976493910440e-01  5.7716866145421175e-01 4.4831063931780368e-01 6.1203916892337684e-01  5.7717198178533868e-01 4.4821963200881054e-01 6.1211435797464764e-01  5.7717427094702356e-01 4.4815630949420526e-01 6.1216662187146831e-01  5.7717560650563104e-01 4.4811916707504823e-01 6.1219725999005403e-01  5.7717599445203871e-01 4.4810635371167923e-01 6.1220764654017001e-01  5.7717596677104832e-01 4.4810026922313212e-01 6.1221204586148126e-01  5.7717599439699130e-01 4.4808777458996646e-01 6.1222129234729694e-01  5.7717608638916318e-01 4.4806854332749274e-01 6.1223564848509149e-01  5.7717634283374142e-01 4.4803922211725095e-01 6.1225782930111949e-01  5.7717725552035226e-01 4.4796230732773529e-01 6.1231661480661914e-01  5.7717841072898013e-01 4.4794382929594712e-01 6.1233310854266387e-01  5.7717940312193505e-01 4.4792121210447072e-01 6.1235222963123248e-01  5.7718012280814046e-01 4.4790372395912770e-01 6.1236689425605073e-01  5.7718057089436092e-01 4.4789262711115457e-01 6.1237617794705879e-01  5.7718052807858966e-01 4.4789369048086275e-01 6.1237528862586199e-01  5.7717992482899005e-01 4.4790871714206376e-01 6.1236272620736987e-01  5.7717891301653135e-01 4.4793460085918552e-01 6.1234115716825122e-01  5.7717492164660011e-01 4.4793667817744792e-01 6.1232951831966032e-01  5.7717427328747206e-01 4.4790330745613921e-01 6.1235237474101012e-01  5.7717362719590970e-01 4.4786870224101710e-01 6.1237614253631589e-01  5.7717288383073884e-01 4.4783453251603761e-01 6.1239934281363606e-01  5.7717199751541470e-01 4.4780171348075520e-01 6.1242118705615012e-01  5.7717093963519162e-01 4.4777094722356059e-01 6.1244108632182803e-01  5.7716969237450111e-01 4.4774243564457716e-01 6.1245884598253886e-01  5.7716824024042068e-01 4.4771586411078834e-01 6.1247465611491392e-01  5.7716652585828676e-01 4.4769060515417458e-01 6.1248882915956115e-01  5.7716217696681482e-01 4.4763839550103129e-01 6.1251603617678174e-01  5.7716051232086163e-01 4.4762294044093420e-01 6.1252310912454988e-01  5.7715899332554577e-01 4.4761284258236317e-01 6.1252661626523475e-01  5.7715756976087162e-01 4.4760691884459008e-01 6.1252729875141931e-01  5.7715620148620062e-01 4.4760447828114097e-01 6.1252556279260517e-01  5.7715488957788874e-01 4.4760487599562687e-01 6.1252188526354168e-01  5.7715362990617580e-01 4.4760762269803273e-01 6.1251661584075423e-01  5.7715242403812550e-01 4.4761226725183928e-01 6.1251009066338269e-01  5.7715127545077538e-01 4.4761839621520355e-01 6.1250262312668047e-01  5.7715019638340381e-01 4.4762557054983770e-01 6.1249456777944433e-01  5.7714919657329822e-01 4.4763339428803572e-01 6.1248624154804188e-01  5.7714830249326188e-01 4.4764132508305748e-01 6.1247811194717006e-01  5.7714690194490670e-01 4.4765584842788947e-01 6.1246384644656815e-01  5.7714581223715922e-01 4.4766837467104503e-01 6.1245185411588854e-01  5.7714451969275671e-01 4.4768384642821429e-01 6.1243717908501782e-01  5.7714304251772031e-01 4.4770215961182386e-01 6.1241994003022837e-01  5.7714089869336427e-01 4.4773017265566428e-01 6.1239379563522578e-01  5.7714095141874666e-01 4.4772968842313254e-01 6.1239426129765173e-01  5.7714103106197989e-01 4.4772874798010565e-01 6.1239514321936417e-01  5.7714103286790053e-01 4.4772872657334195e-01 6.1239516329672983e-01  5.7714093484888529e-01 4.4772993295649693e-01 6.1239403671060666e-01  5.7714073046019354e-01 4.4773252586892376e-01 6.1239162344650477e-01  5.7714035819738196e-01 4.4773738870637675e-01 6.1238711230753373e-01  5.7713934219149388e-01 4.4775123770378117e-01 6.1237434357664344e-01  5.7713916027540846e-01 4.4775414060522545e-01 6.1237172964335418e-01  5.7713920405166641e-01 4.4775411664377879e-01 6.1237183626135838e-01  5.7713931136412622e-01 4.4775313041892462e-01 6.1237281590056614e-01  5.7713935242912451e-01 4.4775273687109379e-01 6.1237320334293099e-01  5.7713929562383115e-01 4.4775335466143518e-01 6.1237261078033300e-01  5.7713913116892068e-01 4.4775515171817776e-01 6.1237088882387336e-01  5.7713874414737332e-01 4.4775958763952323e-01 6.1236667714660264e-01  5.7713564914196425e-01 4.4779825235657278e-01 6.1233053112854130e-01  5.7713415799127710e-01 4.4781756582258109e-01 6.1231258925952647e-01  5.7713292614160172e-01 4.4783364465285569e-01 6.1229767409072433e-01  5.7713188828223938e-01 4.4784722406106325e-01 6.1228508389604819e-01  5.7713107795982266e-01 4.4785782258385776e-01 6.1227525747224454e-01  5.7713010235628792e-01 4.4787038712605265e-01 6.1226357626717076e-01  5.7712920710483828e-01 4.4788174370445488e-01 6.1225298912926240e-01  5.7712806353