<?xml version="1.0"?>
<VTKFile type="UnstructuredGrid"  version="0.1"  >
<UnstructuredGrid>
<Piece  NumberOfPoints="7288" NumberOfCells="14083">
<Points>
<DataArray  type="Float64"  NumberOfComponents="3"  format="ascii">239.8 188 0  250.2 180 0  258.2 172.4 0  257 169.4 0  259.9 157.4 0  258.7 150.3 0  261 143.5 0  251.7 144.4 0  250 138.7 0  247 138.1 0  245.2 130.8 0  247.3 126.4 0  242.7 118.6 0  231.2 107.7 0  226 102.4 0  226.5 93.90000000000001 0  224.5 91.19999999999999 0  224.5 84.09999999999999 0  234.5 73.80000000000001 0  228.4 68.90000000000001 0  230 70 0  233.4 68 0  222.7 61.5 0  220.6 45.5 0  223.4 49.40000000000001 0  224 47 0  221.8 43.09999999999999 0  221 38.40000000000001 0  219.5 38.5 0  219.4 41.69999999999999 0  217.1 36.90000000000001 0  209.7 36 0  209.5 31.69999999999999 0  205.1 29.90000000000001 0  201.5 30.40000000000001 0  199.2 38.69999999999999 0  201.8 41.40000000000001 0  194.8 53.80000000000001 0  196.1 57.69999999999999 0  193 59 0  191.4 66.09999999999999 0  193.5 66.5 0  194.1 64.40000000000001 0  195.6 64.69999999999999 0  195.4 72.40000000000001 0  199.5 77.30000000000001 0  197.7 86.90000000000001 0  200.6 87.5 0  201.5 91 0  198 94.80000000000001 0  198.6 100 0  197.3 105.4 0  198 109.5 0  197 112.7 0  198.3 116.1 0  201.3 122 0  207.2 121 0  208.1 126.7 0  205.6 127.9 0  209.1 134.9 0  210.9 144.4 0  210.1 147.9 0  213 148.4 0  215.4 149.3 0  215.1 152.8 0  219.9 159.7 0  220.3 163.2 0  218.7 164.9 0  219.9 166.7 0  221.9 169.7 0  220 170.3 0  224.9 174.7 0  229.8 177.4 0  229.7 181 0  228 172.9 0  239 178 0  240.4 180 0  239 181.5 0  241.2 185.9 0  242.95 187.99 0  240.5875 187.9975 0  241.375 187.995 0  242.1625 187.9925 0  243.6090909090879 187.2636363636397 0  244.2681818181765 186.5372727272785 0  244.9272727272692 185.810909090913 0  245.5863636363531 185.0845454545571 0  246.245454545445 184.3581818181923 0  246.9045454545351 183.6318181818295 0  247.5636363636303 182.9054545454612 0  248.2227272727197 182.1790909090992 0  248.8818181818179 181.4527272727275 0  249.5409090909066 180.7263636363664 0  250.8666666666961 179.3666666666387 0  251.5333333334033 178.7333333332668 0  252.2000000000994 178.0999999999055 0  252.8666666668011 177.466666666539 0  253.5333333335083 176.8333333331671 0  254.2000000002044 176.1999999998058 0  254.8666666669005 175.5666666664445 0  255.5333333336077 174.9333333330727 0  256.2000000002685 174.2999999997449 0  256.8666666668457 173.6666666664966 0  257.5333333334283 173.033333333243 0  257.9000000000077 171.6500000000191 0  257.6000000000015 170.9000000000038 0  257.2999999999954 170.1499999999885 0  257.2230769230778 168.4769230769195 0  257.4461538461543 167.5538461538442 0  257.6692307692309 166.6307692307688 0  257.8923076923074 165.7076923076935 0  258.115384615384 164.7846153846181 0  258.3384615384605 163.8615384615427 0  258.5615384615395 162.9384615384572 0  258.784615384616 162.0153846153819 0  259.0076923076926 161.0923076923065 0  259.2307692307691 160.1692307692311 0  259.4538461538457 159.2461538461558 0  259.6769230769222 158.3230769230804 0  259.750000000001 156.512500000006 0  259.6000000000014 155.6250000000082 0  259.4500000000029 154.7375000000176 0  259.3000000000018 153.8500000000108 0  259.1500000000007 152.962500000004 0  259.0000000000004 152.0750000000026 0  258.849999999999 151.187499999994 0  258.9875000000052 149.4499999999846 0  259.275000000002 148.5999999999941 0  259.5624999999954 147.7500000000135 0  259.849999999995 146.900000000015 0  260.1374999999945 146.0500000000164 0  260.4249999999913 145.2000000000259 0  260.7124999999948 144.3500000000154 0  260.0700000000398 143.5899999999961 0  259.1400000000573 143.6799999999944 0  258.2100000000351 143.7699999999966 0  257.2800000000262 143.8599999999975 0  256.350000000011 143.9499999999989 0  255.4199999999881 144.0400000000011 0  254.4899999999726 144.1300000000026 0  253.5599999999944 144.2200000000005 0  252.6300000000009 144.3099999999999 0  251.4166666666658 143.4499999999971 0  251.1333333333388 142.5000000000182 0  250.8500000000015 141.5500000000051 0  250.5666666666612 140.5999999999818 0  250.2833333333342 139.6500000000029 0  249.2500000000005 138.5500000000001 0  248.5000000000011 138.4000000000002 0  247.7499999999995 138.2499999999999 0  246.7750000000005 137.1875000000023 0  246.5500000000021 136.2750000000085 0  246.3250000000036 135.3625000000147 0  246.1000000000042 134.450000000017 0  245.8750000000022 133.5375000000088 0  245.650000000003 132.6250000000124 0  245.4250000000046 131.7125000000187 0  245.619999999996 129.9200000000084 0  246.0399999999992 129.0400000000017 0  246.4599999999987 128.1600000000028 0  246.8800000000001 127.2799999999997 0  246.8399999999988 125.6199999999979 0  246.3799999999984 124.8399999999973 0  245.9199999999991 124.0599999999985 0  245.4600000000036 123.2800000000062 0  245.0000000000049 122.5000000000082 0  244.5400000000036 121.7200000000062 0  244.0800000000033 120.9400000000056 0  243.6200000000016 120.1600000000027 0  243.1600000000012 119.3800000000021 0  241.9812499999996 117.9187499999997 0  241.2625000000007 117.2375000000007 0  240.5437500000017 116.5562500000017 0  239.8250000000041 115.875000000004 0  239.1062500000066 115.1937500000063 0  238.3875000000076 114.5125000000072 0  237.6687500000087 113.8312500000082 0  236.9500000000083 113.1500000000079 0  236.231250000008 112.4687500000076 0  235.512500000009 111.7875000000085 0  234.7937500000045 111.1062500000043 0  234.0750000000042 110.4250000000039 0  233.3562500000066 109.7437500000062 0  232.6375000000021 109.062500000002 0  231.9187500000031 108.381250000003 0  230.5500000000004 107.0375000000004 0  229.9000000000021 106.3750000000021 0  229.2500000000038 105.7125000000039 0  228.6000000000041 105.0500000000042 0  227.9500000000018 104.3875000000018 0  227.2999999999952 103.7249999999951 0  226.6500000000024 103.0625000000024 0  226.0555555555555 101.4555555555556 0  226.1111111111111 100.5111111111111 0  226.1666666666667 99.56666666666668 0  226.2222222222222 98.62222222222223 0  226.2777777777778 97.67777777777778 0  226.3333333333333 96.73333333333335 0  226.3888888888889 95.78888888888889 0  226.4444444444445 94.84444444444446 0  226 93.22499999999999 0  225.5000000000026 92.55000000000358 0  225.0000000000026 91.87500000000358 0  224.5 90.31250000000068 0  224.5 89.4250000000097 0  224.5 88.53750000001317 0  224.5 87.65000000001388 0  224.5 86.76250000001457 0  224.5 85.87500000001248 0  224.5 84.9874999999993 0  225.1666666666659 83.41333333333409 0  225.8333333333319 82.72666666666818 0  226.4999999999978 82.04000000000228 0  227.1666666666649 81.35333333333514 0  227.8333333333301 80.66666666667 0  228.4999999999942 79.980000000006 0  229.1666666666601 79.2933333333401 0  229.8333333333316 78.60666666666847 0  230.4999999999975 77.92000000000257 0  231.1666666666644 77.23333333333572 0  231.8333333333295 76.54666666667057 0  232.4999999999972 75.86000000000287 0  233.1666666666681 75.17333333333181 0  233.8333333333368 74.48666666666306 0  233.7499999999995 73.16666666666629 0  233.0000000000018 72.53333333333488 0  232.2500000000014 71.90000000000116 0  231.5000000000009 71.26666666666743 0  230.7500000000005 70.63333333333372 0  229.233333333333 68.75000000000006 0  230.0666666666665 68.60000000000004 0  230.8999999999995 68.45000000000009 0  231.7333333333325 68.30000000000015 0  232.566666666667 68.14999999999995 0  232.5499999999897 68.50000000000607 0  231.7 69 0  230.8500000000103 69.49999999999393 0  227.8300000000008 68.16000000000106 0  227.2600000000064 67.42000000000837 0  226.6900000000077 66.68000000001001 0  226.1200000000024 65.94000000000314 0  225.5500000000108 65.20000000001409 0  224.9800000000098 64.46000000001268 0  224.4100000000007 63.72000000000098 0  223.8399999999971 62.97999999999621 0  223.2699999999993 62.23999999999915 0  222.753846153846 60.56923076923239 0  222.8076923076921 59.63846153846478 0  222.8615384615381 58.70769230769827 0  222.9153846153842 57.77692307693071 0  222.9692307692302 56.84615384616315 0  223.0230769230761 55.91538461539836 0  223.0769230769224 54.98461538462665 0  223.1307692307688 54.05384615385345 0  223.184615384615 53.12307692308312 0  223.2384615384611 52.19230769231556 0  223.2923076923071 51.26153846154906 0  223.3461538461533 50.33076923077847 0  222.8400000000024 48.62000000000327 0  222.2800000000047 47.84000000000661 0  221.7200000000005 47.06000000000071 0  221.1600000000003 46.28000000000039 0  221.4500000000116 45.87500000000512 0  222.3 46.25 0  223.1499999999884 46.62499999999488 0  223.5600000000055 46.22000000000981 0  223.1199999999987 45.43999999999767 0  222.6800000000061 44.66000000001075 0  222.2399999999969 43.8799999999944 0  221.6400000000004 42.16000000000253 0  221.4800000000009 41.22000000000548 0  221.3200000000014 40.28000000000801 0  221.1600000000009 39.34000000000556 0  220.25 38.45 0  219.4749999999999 39.30000000000165 0  219.45 40.09999999999999 0  219.425 40.90000000000112 0  219.0166666666641 40.89999999999463 0  218.6333333333375 40.10000000000875 0  218.2500000000016 39.30000000000339 0  217.8666666666635 38.49999999999351 0  217.483333333337 37.70000000000762 0  216.1750000000165 36.78750000000201 0  215.2500000000275 36.67500000000335 0  214.3250000000385 36.56250000000469 0  213.4000000000277 36.45000000000337 0  212.4750000000059 36.33750000000072 0  211.5499999999838 36.22499999999803 0  210.6249999999835 36.11249999999799 0  209.6600000000001 35.14000000000318 0  209.6200000000001 34.28000000000268 0  209.5800000000001 33.42000000000284 0  209.5399999999998 32.55999999999681 0  208.6200000000117 31.34000000000476 0  207.7400000000138 30.98000000000564 0  206.8600000000162 30.62000000000662 0  205.9800000000174 30.26000000000711 0  204.2000000000054 30.02499999999925 0  203.2999999999946 30.15000000000076 0  202.3999999999945 30.27500000000076 0  201.2444444444438 31.32222222222468 0  200.9888888888895 32.24444444
[...]
<PointData  Vectors="f_12"> 
<DataArray  type="Float64"  Name="f_12"  NumberOfComponents="3" format="ascii">5.7085296397640650e-01 4.9631183991626976e-01 5.6010095519306569e-01  5.7156079725818432e-01 4.9288893792802374e-01 5.6452625278478274e-01  5.7234601889169356e-01 4.8872188689706736e-01 5.6969965565676106e-01  5.7267169210129465e-01 4.8669005805933507e-01 5.7207500221095153e-01  5.7459222275038113e-01 4.7258375398634184e-01 5.8759578058819151e-01  5.7550200586898215e-01 4.6294241435957495e-01 5.9711253229596706e-01  5.7579387270669347e-01 4.5999877919597049e-01 6.0002135728695483e-01  5.7618559712579864e-01 4.4433359860135474e-01 6.1275177678853820e-01  5.7632721391018715e-01 4.2192359223212789e-01 6.2949884761410679e-01  5.7599839976137168e-01 4.1021506188529516e-01 6.3707074813070008e-01  5.7363768825076056e-01 3.6899461078130075e-01 6.5944182326272016e-01  5.7247340961521864e-01 3.5591761641086478e-01 6.6500915371819391e-01  5.7015537033067631e-01 3.3737547475055585e-01 6.7084232506923835e-01  5.6214891031099001e-01 2.9176794809203555e-01 6.7638336437579871e-01  5.5625721096397296e-01 2.6607202412274583e-01 6.7336956822217586e-01  5.5108765583882124e-01 2.4658971279857020e-01 6.6758936401405877e-01  5.4959840939726612e-01 2.4157047916762717e-01 6.6538163325096189e-01  5.4590722822061388e-01 2.2989141911894956e-01 6.5911422004220122e-01  5.4356305442098152e-01 2.2299460297286022e-01 6.5456934732849292e-01  5.4330549623632063e-01 2.2228377028009075e-01 6.5403526289752634e-01  5.4338771162314725e-01 2.2250887105956663e-01 6.5420678546531263e-01  5.4333647551920528e-01 2.2236306474446171e-01 6.5410200489336934e-01  5.4228650713856852e-01 2.1951685894094095e-01 6.5187311634441403e-01  5.4118067257297020e-01 2.1659179580632446e-01 6.4944057416783607e-01  5.4136880211403926e-01 2.1708147023325070e-01 6.4986173685502180e-01  5.4114101860407227e-01 2.1648866190885299e-01 6.4935160465336561e-01  5.4112937525224258e-01 2.1645864574106258e-01 6.4932534092418415e-01  5.4109343644000762e-01 2.1636550197779311e-01 6.4924445665464570e-01  5.4109348971709958e-01 2.1636564135012343e-01 6.4924457606005681e-01  5.4110500579870657e-01 2.1639567402910803e-01 6.4927041905450122e-01  5.4103953452192755e-01 2.1622696299401858e-01 6.4912253649636309e-01  5.4096735731164214e-01 2.1604200080387562e-01 6.4895882241877212e-01  5.4091759831872988e-01 2.1591454987599204e-01 6.4884580597664943e-01  5.4090620275453272e-01 2.1588540780494481e-01 6.4881988472846164e-01  5.4090561046339858e-01 2.1588390535886307e-01 6.4881853157051805e-01  5.4095786460722450e-01 2.1601785783927696e-01 6.4893720225434415e-01  5.4103689048148762e-01 2.1622108566899195e-01 6.4911612171113287e-01  5.4152376313299588e-01 2.1748532353902136e-01 6.5020714592913398e-01  5.4174501757534033e-01 2.1806837015250402e-01 6.5069566848517602e-01  5.4187413673149054e-01 2.1840925088903659e-01 6.5097963793850988e-01  5.4242443295062870e-01 2.1988341002043912e-01 6.5217205387313792e-01  5.4241690760753136e-01 2.1986404390726805e-01 6.5215553718136177e-01  5.4206612347090255e-01 2.1892195237697448e-01 6.5139785910017955e-01  5.4218629511172922e-01 2.1924479712579251e-01 6.5165783343710182e-01  5.4280501464256514e-01 2.2092721928526324e-01 6.5297896792211907e-01  5.4405639582646570e-01 2.2443800542163031e-01 6.5555077117827165e-01  5.4609532752291423e-01 2.3037463296163133e-01 6.5949714335332388e-01  5.4664341701974495e-01 2.3205810224658652e-01 6.6048425312965664e-01  5.4866304024593193e-01 2.3838024642661446e-01 6.6394858366376686e-01  5.5047399301847644e-01 2.4423666527428603e-01 6.6680695410335711e-01  5.5202146543071784e-01 2.4953377860448178e-01 6.6898129096421033e-01  5.5389311918609285e-01 2.5620945517053034e-01 6.7132715971932966e-01  5.5524940248647459e-01 2.6129578003182330e-01 6.7279208389887124e-01  5.5613884809845537e-01 2.6472291295486533e-01 6.7365765215963347e-01  5.5692437361961833e-01 2.6788057747241073e-01 6.7432227301510139e-01  5.5824468361698631e-01 2.7343853252741207e-01 6.7524473840101773e-01  5.6093717221843298e-01 2.8609557553341780e-01 6.7612173635039652e-01  5.6655580816841355e-01 3.1521622761094903e-01 6.7490846015490702e-01  5.6747128908305955e-01 3.2034756434133338e-01 6.7427730072408443e-01  5.7033536612300129e-01 3.3973865479977855e-01 6.6988714644283986e-01  5.7424755799717131e-01 3.7424799972647826e-01 6.5741969943480061e-01  5.7470253862197695e-01 3.7932158393780652e-01 6.5513061363094183e-01  5.7491061276630084e-01 3.8272727107772941e-01 6.5335976553267272e-01  5.7554291621904108e-01 3.9412153704427655e-01 6.4713944693772252e-01  5.7618678586527516e-01 4.0845543654020783e-01 6.3871339911502378e-01  5.7634678740607448e-01 4.3843643287440748e-01 6.1749640893443636e-01  5.7595082751288262e-01 4.5305000771087878e-01 6.0567254313168062e-01  5.7579939768350286e-01 4.5704462649528182e-01 6.0229848955821363e-01  5.7567195000640359e-01 4.5942538090147161e-01 6.0019276934727384e-01  5.7538854999637601e-01 4.6375694089892527e-01 5.9623185142424318e-01  5.7548161512081764e-01 4.6269800947275297e-01 5.9725590738254641e-01  5.7485481409298345e-01 4.6996417819973429e-01 5.9022968904488737e-01  5.7342749673338744e-01 4.8180900211729671e-01 5.7769235090404114e-01  5.7325707291006356e-01 4.8317590648279723e-01 5.7621854611456425e-01  5.7445263142678948e-01 4.7330062759104186e-01 5.8671756218824811e-01  5.7238518350283962e-01 4.8809716573232836e-01 5.7028565427609923e-01  5.7156722572684482e-01 4.9263062384906109e-01 5.6474641172745976e-01  5.7127535708645316e-01 4.9418116818956376e-01 5.6281546400750904e-01  5.7092740287529875e-01 4.9594852384884247e-01 5.6057008357995963e-01  5.7088243087518897e-01 4.9617120913810542e-01 5.6028416694066130e-01  5.7085674247483942e-01 4.9629364693219580e-01 5.6012457583385156e-01  5.7086490551957503e-01 4.9625454788137918e-01 5.6017544355586180e-01  5.7087422656970843e-01 4.9621019278119177e-01 5.6023329568296376e-01  5.7090315872549746e-01 4.9607199281052888e-01 5.6041324498968925e-01  5.7094022186764870e-01 4.9589446373679430e-01 5.6064410217620964e-01  5.7098807688885200e-01 4.9566524611548385e-01 5.6094209253565031e-01  5.7104410421494189e-01 4.9539678755982319e-01 5.6129091808048237e-01  5.7110682664559786e-01 4.9509592218156284e-01 5.6168151631536212e-01  5.7117428242185597e-01 4.9477202279412680e-01 5.6210163935104940e-01  5.7124635465727491e-01 4.9442471848339375e-01 5.6255125824709673e-01  5.7132148932024396e-01 4.9406128271712907e-01 5.6302081025164918e-01  5.7139840327492863e-01 4.9368756679120590e-01 5.6350252241184928e-01  5.7147808006839240e-01 4.9329737342783242e-01 5.6400365817640674e-01  5.7163787132792787e-01 4.9250551142983467e-01 5.6501516424833609e-01  5.7171239623846837e-01 4.9213129077138895e-01 5.6549037446454509e-01  5.7178677805502720e-01 4.9175316569967509e-01 5.6596805080447155e-01  5.7186105624358974e-01 4.9137069987513299e-01 5.6644863384491428e-01  5.7193474614830775e-01 4.9098621488309802e-01 5.6692912259727235e-01  5.7200731183533493e-01 4.9060247590441575e-01 5.6740606047574460e-01  5.7207885086681998e-01 4.9021832481593047e-01 5.6788061412501301e-01  5.7214814209360487e-01 4.8984041121679900e-01 5.6834463774538047e-01  5.7221335704268805e-01 4.8947903411686094e-01 5.6878566613043824e-01  5.7227217440948441e-01 4.8914767906462542e-01 5.6918756670616655e-01  5.7231989014952023e-01 4.8887427546769552e-01 5.6951712797942733e-01  5.7237418232527126e-01 4.8854975470515349e-01 5.6990250787044039e-01  5.7243596677165220e-01 4.8816841387771565e-01 5.7035027096233593e-01  5.7252922410608653e-01 4.8758713418248456e-01 5.7103015616882213e-01  5.7285615577977622e-01 4.8551407599441848e-01 5.7343760863434723e-01  5.7302118990203954e-01 4.8444235878728870e-01 5.7467029553603133e-01  5.7318208499355461e-01 4.8337501301848412e-01 5.7588789298945875e-01  5.7334142122784704e-01 4.8229328710806785e-01 5.7711124328198293e-01  5.7349935596578849e-01 4.8119427731173425e-01 5.7834298694180231e-01  5.7365537879699446e-01 4.8007994103406793e-01 5.7958038322848016e-01  5.7380864977679213e-01 4.7895497166269585e-01 5.8081778627578562e-01  5.7395832962133186e-01 4.7782485137929731e-01 5.8204899100339735e-01  5.7410306266599209e-01 4.7669899073523503e-01 5.8326351536080323e-01  5.7424218692417106e-01 4.7558148442565834e-01 5.8445674540240022e-01  5.7437330544140597e-01 4.7449390740872649e-01 5.8560649110692309e-01  5.7449368511559595e-01 4.7346055448857249e-01 5.8668776014421253e-01  5.7468598240316127e-01 4.7170712020648048e-01 5.8849149688932856e-01  5.7479582578285304e-01 4.7064256303247376e-01 5.8956864200014469e-01  5.7491230219735590e-01 4.6947393809621302e-01 5.9073997272794032e-01  5.7503091554272323e-01 4.6823991655716285e-01 5.9196488193074925e-01  5.7514937620115647e-01 4.6696376561500408e-01 5.9321982150424513e-01  5.7526621475094186e-01 4.6566463674981301e-01 5.9448646801750804e-01  5.7538186806798641e-01 4.6434172825698999e-01 5.9576631531554147e-01  5.7560037344421100e-01 4.6183562695378866e-01 5.9818290936528251e-01  5.7566932900730972e-01 4.6107189987944841e-01 5.9892277297133378e-01  5.7571773043786734e-01 4.6057158065805209e-01 5.9941400389240518e-01  5.7575196542249363e-01 4.6024629091563718e-01 5.9973921675967334e-01  5.7577420908151600e-01 4.6006845133351065e-01 5.9992467471922484e-01  5.7578702596304132e-01 4.5999620574926708e-01 6.0000829978445402e-01  5.7579272053233066e-01 4.5998904952851499e-01 6.0002629912107508e-01  5.7579436661555805e-01 4.5995479934859962e-01 6.0005621944291110e-01  5.7579812611941428e-01 4.5977304760163124e-01 6.0020406126648118e-01  5.7580784675794539e-01 4.5939784091903196e-01 6.0051351268682018e-01  5.7582489041022811e-01 4.5878932863456146e-01 6.0101796068478874e-01  5.7585114816170280e-01 4.5788912640295454e-01 6.0176580128789625e-01  5.7588771813298234e-01 4.5664231049523446e-01 6.0280036976493601e-01  5.7593511258322461e-01 4.5497753220541387e-01 6.0417507937263881e-01  5.7599458304057582e-01 4.5276534125716195e-01 6.0598733979182251e-01  5.7607060242230712e-01 4.4967325848286327e-01 6.0849164867834538e-01  5.7629315663894964e-01 4.3799279463421842e-01 6.1770568823465255e-01  5.7634428627387024e-01 4.3346601506074167e-01 6.2115538719198204e-01  5.7636484659213283e-01 4.2955346167373298e-01 6.2406133926073259e-01  5.7636273115806047e-01 4.2621377103601704e-01 6.2648206700812659e-01  5.7634645189643408e-01 4.2352968818793768e-01 6.2838544620966497e-01  5.7630626199159285e-01 4.2090998281170011e-01 6.3017873947425029e-01  5.7625475639908075e-01 4.1874432169853071e-01 6.3161124990720463e-01  5.7616469914369828e-01 4.1548298243082415e-01 6.3372728396800349e-01  5.7573157139834996e-01 4.0303191242119285e-01 6.4148725857763667e-01  5.7549048165770400e-01 3.9752317739248383e-01 6.4474302881643375e-01  5.7524086169851352e-01 3.9254363622716820e-01 6.4757273407711657e-01  5.7497583828434362e-01 3.8783297334154021e-01 6.5014722647426826e-01  5.7469225057921913e-01 3.8327870417128151e-01 6.5253935261711349e-01  5.7438677260764481e-01 3.7878826459853332e-01 6.5480539929242876e-01  5.7405020481534275e-01 3.7421530463456215e-01 6.5702003962658029e-01  5.7324771204689418e-01 3.6433278355704435e-01 6.6151932179715489e-01  5.7296660860135062e-01 3.6113355931956814e-01 6.6289213563032667e-01  5.7274382261278389e-01 3.5870673718957669e-01 6.6389853501681595e-01  5.7257342975059178e-01 3.5692321399088728e-01 6.6461603639125433e-01  5.7237943489617760e-01 3.5504079300438451e-01 6.6533479751097879e-01  5.7222077823669826e-01 3.5361279276501123e-01 6.6584990902510321e-01  5.7202200464348218e-01 3.5187868787187071e-01 6.6645703624462294e-01  5.7179230671811387e-01 3.4993319407979556e-01 6.6711652969601432e-01  5.7154130896655742e-01 3.4787015711160296e-01 6.6779131544277970e-01  5.7127315209138885e-01 3.4572826920171812e-01 6.6846582484519868e-01  5.7099248056837304e-01 3.4354777986793261e-01 6.6912548691973706e-01  5.7070500782980693e-01 3.4137480677444282e-01 6.6975552977583941e-01  5.7041881390008509e-01 3.3926721160025092e-01 6.7034043210586869e-01  5.6985136772876133e-01 3.3525592641683877e-01 6.7137421674067810e-01  5.6949423607725969e-01 3.3283106502265297e-01 6.7194878955069537e-01  5.6910592415805272e-01 3.3026055404937749e-01 6.7252130052527848e-01  5.6868977778795637e-01 3.2757537903906647e-01 6.7307848607918486e-01  5.6824989891036470e-01 3.2480650772109493e-01 6.7361031863350329e-01  5.6778856015619661e-01 3.2197398559071294e-01 6.7410870195383865e-01  5.6730646998352974e-01 3.1908622564765421e-01 6.7456871881444769e-01  5.6680493775779761e-01 3.1615464488069800e-01 6.7498553443356046e-01  5.6628567729765866e-01 3.1319197665452519e-01 6.7535489308303898e-01  5.6574825192991451e-01 3.1019891772174135e-01 6.7567385078113307e-01  5.6519341637898435e-01 3.0718152433823570e-01 6.7593978696948598e-01  5.6462233042925170e-01 3.0414784178387388e-01 6.7615014370075055e-01  5.6403267348199049e-01 3.0108847934104549e-01 6.7630275123336459e-01  5.6342684323549364e-01 2.9801990294367126e-01 6.7639302793420619e-01  5.6280027391917897e-01 2.9491902802177278e-01 6.7642079013113499e-01  5.6152112904518603e-01 2.8879823110687380e-01 6.7628541115909524e-01  5.6088569843968505e-01 2.8585665206952410e-01 6.7612659603847625e-01  5.6023626342923150e-01 2.8291173258563684e-01 6.7590648193965519e-01  5.5956511832531619e-01 2.7993476163374170e-01 6.7561610269259009e-01  5.5886860309413033e-01 2.7690907233913625e-01 6.7525246686056650e-01  5.5812933524226682e-01 2.7376527171223064e-01 6.7479908350660422e-01  5.5730652788126944e-01 2.7034281566949053e-01 6.7421522875651441e-01  5.5521990194584014e-01 2.6194450662756585e-01 6.7243322999315447e-01  5.5444897050248854e-01 2.5893986034263866e-01 6.7166879162274662e-01  5.5378713435155225e-01 2.5640961556008368e-01 6.7096066161386103e-01  5.5319482895581351e-01 2.5418519566662023e-01 6.7028645598046066e-01  5.5265662549182426e-01 2.5219693407225913e-01 6.6964162706122543e-01  5.5216819103197623e-01 2.5042037100863873e-01 6.6903020879199804e-01  5.5173102011752018e-01 2.4885329234316791e-01 6.6846205980727724e-01  5.5135585926506858e-01 2.4752649287060158e-01 6.6795882469378098e-01  5.5086796805628868e-01 2.4583466904793835e-01 6.6727719487637405e-01  5.5053967178968444e-01 2.4471763657480275e-01 6.6680096755354767e-01  5.5013497492529717e-01 2.4335578018037071e-01 6.6619964210991245e-01  5.4901151438723850e-01 2.3964103437379269e-01 6.6446231728456873e-01  5.4852533852247098e-01 2.3806220577916737e-01 6.6367989284395212e-01  5.4807903708004191e-01 2.3663017550367232e-01 6.6294324835125951e-01  5.4765395880127976e-01 2.3528166982719342e-01 6.6222538768268102e-01  5.4724114156839077e-01 2.3398662327162439e-01 6.6151306613772276e-01  5.4683216717901584e-01 2.3271728934633934e-01 6.6079271902992598e-01  5.4641223197656041e-01 2.3142730126858951e-01 6.6003854942650686e-01  5.4543294841062939e-01 2.2846282712226862e-01 6.5823056280731718e-01  5.4509939625211179e-01 2.2746680797325755e-01 6.5759901819906286e-01  5.4482723244574782e-01 2.2666031504566275e-01 6.5707675670456822e-01  5.4459646466475675e-01 2.2598114788847840e-01 6.5662896865496301e-01  5.4439779653891585e-01 2.2539997323397520e-01 6.5623986204399654e-01  5.4422584861871681e-01 2.2489962913809647e-01 6.5590043927337616e-01  5.4407749459438270e-01 2.2446996039564543e-01 6.5560562472620254e-01  5.4395064687193539e-01 2.2410408234193432e-01 6.5535210653659792e-01  5.4384341881372755e-01 2.2379587464485046e-01 6.5513677449159313e-01  5.4375480984619873e-01 2.2354193352614921e-01 6.5495812147705423e-01  5.4368368702557490e-01 2.2333859216948318e-01 6.5481426240068819e-01  5.4362961211267269e-01 2.2318427480481531e-01 6.5470461146522074e-01  5.4359197558258432e-01 2.2307700402905628e-01 6.5462815714641553e-01  5.4356992522018110e-01 2.2301420527398275e-01 6.5458331314881180e-01  5.4355997951681656e-01 2.2298617603371154e-01 6.5456296937418557e-01  5.4354831296797401e-01 2.2295394623776379e-01 6.5453886011287432e-01  5.4352713247063567e-01 2.2289534966907260e-01 6.5449509983828380e-01  5.4349616112179810e-01 2.2280963667129450e-01 6.5443107860876049e-01  5.4345282569581088e-01 2.2268961289286351e-01 6.5434145018782475e-01  5.4334679682186526e-01 2.2239584852393190e-01 6.5412187530518817e-01  5.4335413600006521e-01 2.2241463782351381e-01 6.5413767844670356e-01  5.4334845799970732e-01 2.2239776129106445e-01 6.5412632414663341e-01  5.4334247686348092e-01 2.2238039916039196e-01 6.5411420321892111e-01  5.4333841452796139e-01 2.2236866276695669e-01 6.5410594767112573e-01  5.4333880640223198e-01 2.2236979409959215e-01 6.5410674448775641e-01  5.4334443981896219e-01 2.2238604957198516e-01 6.5411819889450828e-01  5.4335523085827842e-01 2.2241704126723183e-01 6.5414017692751736e-01  5.4321829987906123e-01 2.2204494741560324e-01 6.5385300994700679e-01  5.4313444231318564e-01 2.2181522939046988e-01 6.5367742622034219e-01  5.4304779287883331e-01 2.2157819068655280e-01 6.5349551046440701e-01  5.4295764319536044e-01 2.2133206075738035e-01 6.5330567060574729e-01  5.4286372133843130e-01 2.2107621575017083e-01 6.5310723660923375e-01  5.4276597685857686e-01 2.2081060943331327e-01 6.5290001513093843e-01  5.4266366890550466e-01 2.2053332036754464e-01 6.5268233109849561e-01  5.4255498647277778e-01 2.2023953319647285e-01 6.5245020373091056e-01  5.4243555381196862e-01 2.1991756415837022e-01 6.5219408735120776e-01  5.4213929111022630e-01 2.1912213118276247e-01 6.5155477872057022e-01  5.4202759500992936e-01 2.1882347083241424e-01 6.5131226225242378e-01  5.4193047561689822e-01 2.1856447297481096e-01 6.5110062201595920e-01  5.4184383807629932e-01 2.1833402303901331e-01 6.5091118652143376e-01  5.4176522270933802e-01 2.1812541337116634e-01 6.5073877408775205e-01  5.4169370487728385e-01 2.1793606966429294e-01 6.5058149562445444e-01  5.4162857112663532e-01 2.1776399581938163e-01 6.5043789823826648e-01  5.4156939796885617e-01 2.1760798104917980e-01 6.5030714427789593e-01  5.4151594105945555e-01 2.1746729940642529e-01 6.5018877681402176e-01  5.4146829564796084e-01 2.1734212944325787e-01 6.5008307876124150e-01  5.4142669817639011e-01 2.1723302316922427e-01 6.4999064279464214e-01  5.4139202699291833e-01 2.1714221765072703e-01 6.4991348522819048e-01  5.4134588825563579e-01 2.1702165435782067e-01 6.4981059713091471e-01  5.4131510451872977e-01 2.1694140076274587e-01 6.4974180926763625e-01  5.4127972408678171e-01 2.1684927859855799e-01 6.4966264836997412e-01  5.4123862487980701e-01 2.1674238844639301e-01 6.4957056892951581e-01  5.4115281934076054e-01 2.1651938471256155e-01 6.4937807654036772e-01  5.4114466469529976e-01 2.1649816431900099e-01 6.4935978179494436e-01  5.4114186240967166e-01 2.1649086253197655e-01 6.4935349680515109e-01  5.4114180646409549e-01 2.1649071674494486e-01 6.4935337130529336e-01  5.4114328289564406e-01 2.1649457386110638e-01 6.4935667889786186e-01  5.4114363953169331e-01 2.1649554062690196e-01 6.4935746206097689e-01  5.4113952302991486e-01 2.1648491198671393e-01 6.4934818464136812e-01  5.4111629909228631e-01 2.1642477781043407e-01 6.4929590901478773e-01  5.4110620472431692e-01 2.1639862136628371e-01 6.4927318830008773e-01  5.4109914928206793e-01 2.1638032560390524e-01 6.4925731074328119e-01  5.4109491679086053e-01 2.1636934381821074e-01 6.4924778738834732e-01  5.4109354915585084e-01 2.1636579510568138e-01 6.4924471000337769e-01  5.4109450190503749e-01 2.1636827047986840e-01 6.4924685249451286e-01  5.4109720377486492e-01 2.1637529144409146e-01 6.4925292754757591e-01  5.4110102298514773e-01 2.1638523577003022e-01 6.4926150556527984e-01  5.4108885912992677e-01 2.1635407656755182e-01 6.4923395932738304e-01  5.4107459749834008e-01 2.1631730553585385e-01 6.4920176099478077e-01  5.4106206678235280e-01 2.1628500323887659e-01 6.4917346083922323e-01  5.4105160095401228e-01 2.1625803510039304e-01 6.4914981421069318e-01  5.4104371087427106e-01 2.1623771343550016e-01 6.4913198015603335e-01  5.4103621432583160e-01 2.1621843317891898e-01 6.4911502043064828e-01  5.4103100696981388e-01 2.1620506826902225e-01 6.4910322544568477e-01  5.4102465169