<?xml version="1.0"?>
<VTKFile type="UnstructuredGrid"  version="0.1"  >
<UnstructuredGrid>
<Piece  NumberOfPoints="7288" NumberOfCells="14083">
<Points>
<DataArray  type="Float64"  NumberOfComponents="3"  format="ascii">239.8 188 0  250.2 180 0  258.2 172.4 0  257 169.4 0  259.9 157.4 0  258.7 150.3 0  261 143.5 0  251.7 144.4 0  250 138.7 0  247 138.1 0  245.2 130.8 0  247.3 126.4 0  242.7 118.6 0  231.2 107.7 0  226 102.4 0  226.5 93.90000000000001 0  224.5 91.19999999999999 0  224.5 84.09999999999999 0  234.5 73.80000000000001 0  228.4 68.90000000000001 0  230 70 0  233.4 68 0  222.7 61.5 0  220.6 45.5 0  223.4 49.40000000000001 0  224 47 0  221.8 43.09999999999999 0  221 38.40000000000001 0  219.5 38.5 0  219.4 41.69999999999999 0  217.1 36.90000000000001 0  209.7 36 0  209.5 31.69999999999999 0  205.1 29.90000000000001 0  201.5 30.40000000000001 0  199.2 38.69999999999999 0  201.8 41.40000000000001 0  194.8 53.80000000000001 0  196.1 57.69999999999999 0  193 59 0  191.4 66.09999999999999 0  193.5 66.5 0  194.1 64.40000000000001 0  195.6 64.69999999999999 0  195.4 72.40000000000001 0  199.5 77.30000000000001 0  197.7 86.90000000000001 0  200.6 87.5 0  201.5 91 0  198 94.80000000000001 0  198.6 100 0  197.3 105.4 0  198 109.5 0  197 112.7 0  198.3 116.1 0  201.3 122 0  207.2 121 0  208.1 126.7 0  205.6 127.9 0  209.1 134.9 0  210.9 144.4 0  210.1 147.9 0  213 148.4 0  215.4 149.3 0  215.1 152.8 0  219.9 159.7 0  220.3 163.2 0  218.7 164.9 0  219.9 166.7 0  221.9 169.7 0  220 170.3 0  224.9 174.7 0  229.8 177.4 0  229.7 181 0  228 172.9 0  239 178 0  240.4 180 0  239 181.5 0  241.2 185.9 0  242.95 187.99 0  240.5875 187.9975 0  241.375 187.995 0  242.1625 187.9925 0  243.6090909090879 187.2636363636397 0  244.2681818181765 186.5372727272785 0  244.9272727272692 185.810909090913 0  245.5863636363531 185.0845454545571 0  246.245454545445 184.3581818181923 0  246.9045454545351 183.6318181818295 0  247.5636363636303 182.9054545454612 0  248.2227272727197 182.1790909090992 0  248.8818181818179 181.4527272727275 0  249.5409090909066 180.7263636363664 0  250.8666666666961 179.3666666666387 0  251.5333333334033 178.7333333332668 0  252.2000000000994 178.0999999999055 0  252.8666666668011 177.466666666539 0  253.5333333335083 176.8333333331671 0  254.2000000002044 176.1999999998058 0  254.8666666669005 175.5666666664445 0  255.5333333336077 174.9333333330727 0  256.2000000002685 174.2999999997449 0  256.8666666668457 173.6666666664966 0  257.5333333334283 173.033333333243 0  257.9000000000077 171.6500000000191 0  257.6000000000015 170.9000000000038 0  257.2999999999954 170.1499999999885 0  257.2230769230778 168.4769230769195 0  257.4461538461543 167.5538461538442 0  257.6692307692309 166.6307692307688 0  257.8923076923074 165.7076923076935 0  258.115384615384 164.7846153846181 0  258.3384615384605 163.8615384615427 0  258.5615384615395 162.9384615384572 0  258.784615384616 162.0153846153819 0  259.0076923076926 161.0923076923065 0  259.2307692307691 160.1692307692311 0  259.4538461538457 159.2461538461558 0  259.6769230769222 158.3230769230804 0  259.750000000001 156.512500000006 0  259.6000000000014 155.6250000000082 0  259.4500000000029 154.7375000000176 0  259.3000000000018 153.8500000000108 0  259.1500000000007 152.962500000004 0  259.0000000000004 152.0750000000026 0  258.849999999999 151.187499999994 0  258.9875000000052 149.4499999999846 0  259.275000000002 148.5999999999941 0  259.5624999999954 147.7500000000135 0  259.849999999995 146.900000000015 0  260.1374999999945 146.0500000000164 0  260.4249999999913 145.2000000000259 0  260.7124999999948 144.3500000000154 0  260.0700000000398 143.5899999999961 0  259.1400000000573 143.6799999999944 0  258.2100000000351 143.7699999999966 0  257.2800000000262 143.8599999999975 0  256.350000000011 143.9499999999989 0  255.4199999999881 144.0400000000011 0  254.4899999999726 144.1300000000026 0  253.5599999999944 144.2200000000005 0  252.6300000000009 144.3099999999999 0  251.4166666666658 143.4499999999971 0  251.1333333333388 142.5000000000182 0  250.8500000000015 141.5500000000051 0  250.5666666666612 140.5999999999818 0  250.2833333333342 139.6500000000029 0  249.2500000000005 138.5500000000001 0  248.5000000000011 138.4000000000002 0  247.7499999999995 138.2499999999999 0  246.7750000000005 137.1875000000023 0  246.5500000000021 136.2750000000085 0  246.3250000000036 135.3625000000147 0  246.1000000000042 134.450000000017 0  245.8750000000022 133.5375000000088 0  245.650000000003 132.6250000000124 0  245.4250000000046 131.7125000000187 0  245.619999999996 129.9200000000084 0  246.0399999999992 129.0400000000017 0  246.4599999999987 128.1600000000028 0  246.8800000000001 127.2799999999997 0  246.8399999999988 125.6199999999979 0  246.3799999999984 124.8399999999973 0  245.9199999999991 124.0599999999985 0  245.4600000000036 123.2800000000062 0  245.0000000000049 122.5000000000082 0  244.5400000000036 121.7200000000062 0  244.0800000000033 120.9400000000056 0  243.6200000000016 120.1600000000027 0  243.1600000000012 119.3800000000021 0  241.9812499999996 117.9187499999997 0  241.2625000000007 117.2375000000007 0  240.5437500000017 116.5562500000017 0  239.8250000000041 115.875000000004 0  239.1062500000066 115.1937500000063 0  238.3875000000076 114.5125000000072 0  237.6687500000087 113.8312500000082 0  236.9500000000083 113.1500000000079 0  236.231250000008 112.4687500000076 0  235.512500000009 111.7875000000085 0  234.7937500000045 111.1062500000043 0  234.0750000000042 110.4250000000039 0  233.3562500000066 109.7437500000062 0  232.6375000000021 109.062500000002 0  231.9187500000031 108.381250000003 0  230.5500000000004 107.0375000000004 0  229.9000000000021 106.3750000000021 0  229.2500000000038 105.7125000000039 0  228.6000000000041 105.0500000000042 0  227.9500000000018 104.3875000000018 0  227.2999999999952 103.7249999999951 0  226.6500000000024 103.0625000000024 0  226.0555555555555 101.4555555555556 0  226.1111111111111 100.5111111111111 0  226.1666666666667 99.56666666666668 0  226.2222222222222 98.62222222222223 0  226.2777777777778 97.67777777777778 0  226.3333333333333 96.73333333333335 0  226.3888888888889 95.78888888888889 0  226.4444444444445 94.84444444444446 0  226 93.22499999999999 0  225.5000000000026 92.55000000000358 0  225.0000000000026 91.87500000000358 0  224.5 90.31250000000068 0  224.5 89.4250000000097 0  224.5 88.53750000001317 0  224.5 87.65000000001388 0  224.5 86.76250000001457 0  224.5 85.87500000001248 0  224.5 84.9874999999993 0  225.1666666666659 83.41333333333409 0  225.8333333333319 82.72666666666818 0  226.4999999999978 82.04000000000228 0  227.1666666666649 81.35333333333514 0  227.8333333333301 80.66666666667 0  228.4999999999942 79.980000000006 0  229.1666666666601 79.2933333333401 0  229.8333333333316 78.60666666666847 0  230.4999999999975 77.92000000000257 0  231.1666666666644 77.23333333333572 0  231.8333333333295 76.54666666667057 0  232.4999999999972 75.86000000000287 0  233.1666666666681 75.17333333333181 0  233.8333333333368 74.48666666666306 0  233.7499999999995 73.16666666666629 0  233.0000000000018 72.53333333333488 0  232.2500000000014 71.90000000000116 0  231.5000000000009 71.26666666666743 0  230.7500000000005 70.63333333333372 0  229.233333333333 68.75000000000006 0  230.0666666666665 68.60000000000004 0  230.8999999999995 68.45000000000009 0  231.7333333333325 68.30000000000015 0  232.566666666667 68.14999999999995 0  232.5499999999897 68.50000000000607 0  231.7 69 0  230.8500000000103 69.49999999999393 0  227.8300000000008 68.16000000000106 0  227.2600000000064 67.42000000000837 0  226.6900000000077 66.68000000001001 0  226.1200000000024 65.94000000000314 0  225.5500000000108 65.20000000001409 0  224.9800000000098 64.46000000001268 0  224.4100000000007 63.72000000000098 0  223.8399999999971 62.97999999999621 0  223.2699999999993 62.23999999999915 0  222.753846153846 60.56923076923239 0  222.8076923076921 59.63846153846478 0  222.8615384615381 58.70769230769827 0  222.9153846153842 57.77692307693071 0  222.9692307692302 56.84615384616315 0  223.0230769230761 55.91538461539836 0  223.0769230769224 54.98461538462665 0  223.1307692307688 54.05384615385345 0  223.184615384615 53.12307692308312 0  223.2384615384611 52.19230769231556 0  223.2923076923071 51.26153846154906 0  223.3461538461533 50.33076923077847 0  222.8400000000024 48.62000000000327 0  222.2800000000047 47.84000000000661 0  221.7200000000005 47.06000000000071 0  221.1600000000003 46.28000000000039 0  221.4500000000116 45.87500000000512 0  222.3 46.25 0  223.1499999999884 46.62499999999488 0  223.5600000000055 46.22000000000981 0  223.1199999999987 45.43999999999767 0  222.6800000000061 44.66000000001075 0  222.2399999999969 43.8799999999944 0  221.6400000000004 42.16000000000253 0  221.4800000000009 41.22000000000548 0  221.3200000000014 40.28000000000801 0  221.1600000000009 39.34000000000556 0  220.25 38.45 0  219.4749999999999 39.30000000000165 0  219.45 40.09999999999999 0  219.425 40.90000000000112 0  219.0166666666641 40.89999999999463 0  218.6333333333375 40.10000000000875 0  218.2500000000016 39.30000000000339 0  217.8666666666635 38.49999999999351 0  217.483333333337 37.70000000000762 0  216.1750000000165 36.78750000000201 0  215.2500000000275 36.67500000000335 0  214.3250000000385 36.56250000000469 0  213.4000000000277 36.45000000000337 0  212.4750000000059 36.33750000000072 0  211.5499999999838 36.22499999999803 0  210.6249999999835 36.11249999999799 0  209.6600000000001 35.14000000000318 0  209.6200000000001 34.28000000000268 0  209.5800000000001 33.42000000000284 0  209.5399999999998 32.55999999999681 0  208.6200000000117 31.34000000000476 0  207.7400000000138 30.98000000000564 0  206.8600000000162 30.62000000000662 0  205.9800000000174 30.26000000000711 0  204.2000000000054 30.02499999999925 0  203.2999999999946 30.15000000000076 0  202.3999999999945 30.27500000000076 0  201.2444444444438 31.32222222222468 0  200.9888888888895 32.24444444
[...]
<PointData  Vectors="f_12"> 
<DataArray  type="Float64"  Name="f_12"  NumberOfComponents="3" format="ascii">4.8473552905628109e-01 2.2212212570367212e-01 3.8970342978405292e-01  4.8476685253124013e-01 2.2598570804270213e-01 3.8769137757327055e-01  4.8484174065596286e-01 2.3067155395508085e-01 3.8544143779602025e-01  4.8490152782741308e-01 2.3290396853476858e-01 3.8449802207247569e-01  4.8549165987586673e-01 2.4850097096178944e-01 3.7877103922349797e-01  4.8608768428175425e-01 2.5912465950073166e-01 3.7585458120918097e-01  4.8627806721795802e-01 2.6250539372799275e-01 3.7491551889269792e-01  4.8769947723712731e-01 2.7903320227131240e-01 3.7290750386873717e-01  4.9004762400147661e-01 3.0366826339896985e-01 3.7079012026863761e-01  4.9153609301683615e-01 3.1681865498071882e-01 3.7072064778504427e-01  4.9763707145770908e-01 3.6450136451972376e-01 3.7283885993636201e-01  4.9988865074707156e-01 3.8001838281288031e-01 3.7437838755362490e-01  5.0346108929955324e-01 4.0137032984529503e-01 3.7831460801665256e-01  5.1386224499039301e-01 4.5153529941071952e-01 3.9380775269375912e-01  5.2090015678803780e-01 4.7789395159490322e-01 4.0632640148931737e-01  5.2690255575003797e-01 4.9654014807162594e-01 4.1785092741313873e-01  5.2859251812396280e-01 5.0095004040002644e-01 4.2137064309106748e-01  5.3273765764433012e-01 5.1059447124345481e-01 4.3033202116968960e-01  5.3535095019804013e-01 5.1583138677521101e-01 4.3621524286455138e-01  5.3563918033348024e-01 5.1632658195924741e-01 4.3690544931638942e-01  5.3554689245983467e-01 5.1617128045445138e-01 4.3668247665972282e-01  5.3560344511574265e-01 5.1627634779018283e-01 4.3681205481245389e-01  5.3678490700840342e-01 5.1821120401532983e-01 4.3967738934603473e-01  5.3804399547544379e-01 5.2013427749555075e-01 4.4277328132270805e-01  5.3782716284448229e-01 5.1981863899052916e-01 4.4223323665246089e-01  5.3808964645159429e-01 5.2020057237382133e-01 4.4288692028204052e-01  5.3810326219436611e-01 5.2021981953979834e-01 4.4292116851047303e-01  5.3814480917713625e-01 5.2027951822334728e-01 4.4302492712125247e-01  5.3814474909609533e-01 5.2027942937492011e-01 4.4302477904084969e-01  5.3813164839684724e-01 5.2026024454794895e-01 4.4299233840514757e-01  5.3820833844553784e-01 5.2036855112009461e-01 4.4318515465255454e-01  5.3829391801321225e-01 5.2048741257174580e-01 4.4340154883961003e-01  5.3835289295292366e-01 5.2056918211293224e-01 4.4355062999581252e-01  5.3836644735644257e-01 5.2058789034066455e-01 4.4358493694769341e-01  5.3836717119761557e-01 5.2058886887040912e-01 4.4358678484521830e-01  5.3830541632159701e-01 5.2050304265589431e-01 4.4343087555956689e-01  5.3821253185183560e-01 5.2037268925278379e-01 4.4319700090525638e-01  5.3764821488016845e-01 5.1955712856376457e-01 4.4178686459364730e-01  5.3739623745614284e-01 5.1917655076025782e-01 4.4116522868153818e-01  5.3724934508411415e-01 5.1895348767717520e-01 4.4080285323543822e-01  5.3662988048984317e-01 5.1797267616122211e-01 4.3929410704625471e-01  5.3663845906246321e-01 5.1798470662073159e-01 4.3931618339609535e-01  5.3703287812826794e-01 5.1861362930563348e-01 4.4027511155980381e-01  5.3689780328272330e-01 5.1839802471095042e-01 4.3994728353600765e-01  5.3620434908639913e-01 5.1725321490510068e-01 4.3828178006108082e-01  5.3480883961160364e-01 5.1475258906712917e-01 4.3501135342153818e-01  5.3253577847903488e-01 5.1030272821790557e-01 4.2979320514037789e-01  5.3192210916269922e-01 5.0895022046771432e-01 4.2844942387766172e-01  5.2966060196122544e-01 5.0377608937869711e-01 4.2350835753034094e-01  5.2763012715461111e-01 4.9882991855212666e-01 4.1911349478649279e-01  5.2588094328845558e-01 4.9411347261100852e-01 4.1549004519695626e-01  5.2375087974225176e-01 4.8797281533397180e-01 4.1117914942242617e-01  5.2219248224932269e-01 4.8313157332907225e-01 4.0813250420225206e-01  5.2116452685071746e-01 4.7981458267092114e-01 4.0615189463669027e-01  5.2024273185955849e-01 4.7667613454055746e-01 4.0444234719202748e-01  5.1866138507234749e-01 4.7098991403186241e-01 4.0162533101161568e-01  5.1531535846443222e-01 4.5741164743567292e-01 3.9626898093627727e-01  5.0821699541124565e-01 4.2578779408223022e-01 3.8508532512598392e-01  5.0704168317206011e-01 4.2018325654638544e-01 3.8325292745023670e-01  5.0301079388189551e-01 3.9819921252566071e-01 3.7815083678880990e-01  4.9671766934212014e-01 3.5876942835316944e-01 3.7175749247488926e-01  4.9587829538692280e-01 3.5298752127802896e-01 3.7107281211906351e-01  4.9536060572929119e-01 3.4897103728161505e-01 3.7091082450728380e-01  4.9368575255544833e-01 3.3571594030168478e-01 3.7042881781270282e-01  4.9168847354720369e-01 3.1927037459772045e-01 3.7003728334986558e-01  4.8825952000790518e-01 2.8553364762376066e-01 3.7207119089630381e-01  4.8689059536781831e-01 2.6962232980448675e-01 3.7407830907557876e-01  4.8654566201876859e-01 2.6535237956882002e-01 3.7470929215612792e-01  4.8635918908066167e-01 2.6280070567122260e-01 3.7518781918096655e-01  4.8604204817362312e-01 2.5812625482346691e-01 3.7618891331433502e-01  4.8611079898306186e-01 2.5929879343598744e-01 3.7587975228562359e-01  4.8564026800320781e-01 2.5134979613534331e-01 3.7793405340460545e-01  4.8506222841085245e-01 2.3832176710792499e-01 3.8228142629766876e-01  4.8500226172952449e-01 2.3686131823230566e-01 3.8278842835535781e-01  4.8547184534556082e-01 2.4761155374425625e-01 3.7917848572582086e-01  4.8487998277959632e-01 2.3125547932949006e-01 3.8532053081968098e-01  4.8478578956041429e-01 2.2620592180804253e-01 3.8767147155322729e-01  4.8475966893579070e-01 2.2448441080798759e-01 3.8850233609831097e-01  4.8473857859710473e-01 2.2252692736094795e-01 3.8949182289480117e-01  4.8473647900589517e-01 2.2227976468282831e-01 3.8961972957435043e-01  4.8473566237549981e-01 2.2214245900564300e-01 3.8969269382631699e-01  4.8473593489871758e-01 2.2218622912522507e-01 3.8966950292808239e-01  4.8473622523294441e-01 2.2223599156627077e-01 3.8964302830046182e-01  4.8473718609575162e-01 2.2239099780626548e-01 3.8956085969695342e-01  4.8473848149744886e-01 2.2259015433142235e-01 3.8945559877778185e-01  4.8474019518750350e-01 2.2284762507951700e-01 3.8931969260662458e-01  4.8474226969129858e-01 2.2314963472523741e-01 3.8916057275327237e-01  4.8474469186358254e-01 2.2348861748812424e-01 3.8898241446275883e-01  4.8474741234103635e-01 2.2385421241107892e-01 3.8879077412466795e-01  4.8475051393024310e-01 2.2424666511650754e-01 3.8858595119219219e-01  4.8475396319418684e-01 2.2465782455588248e-01 3.8837235436733508e-01  4.8475774431723373e-01 2.2508108244035133e-01 3.8815361997617714e-01  4.8476202155882953e-01 2.2552305111621210e-01 3.8792690031439775e-01  4.8477169262259862e-01 2.2642012996102825e-01 3.8747177502149865e-01  4.8477675268816567e-01 2.2684397083522809e-01 3.8725926216383016e-01  4.8478226695405430e-01 2.2727169500844829e-01 3.8704693154417991e-01  4.8478825392022612e-01 2.2770371769955292e-01 3.8683464901877529e-01  4.8479468739436660e-01 2.2813737547955765e-01 3.8662377854389379e-01  4.8480151679269129e-01 2.2856949820402145e-01 3.8641584489620212e-01  4.8480879720595360e-01 2.2900114613676484e-01 3.8621055353175898e-01  4.8481639271778970e-01 2.2942481183266467e-01 3.8601143226052348e-01  4.8482407280145318e-01 2.2982896292705593e-01 3.8582378343501805e-01  4.8483150291843041e-01 2.3019853960131362e-01 3.8565435847896901e-01  4.8483795809414865e-01 2.3050261001220385e-01 3.8551680121232246e-01  4.8484653132929717e-01 2.3086067240130009e-01 3.8536013015960441e-01  4.8485741478696326e-01 2.3127935258482693e-01 3.8518157679743592e-01  4.8487445339099194e-01 2.3191769971517817e-01 3.8491157058761016e-01  4.8493832113702406e-01 2.3419922491550460e-01 3.8396084710042711e-01  4.8497349514559296e-01 2.3538148761766403e-01 3.8347836249761302e-01  4.8501035827366540e-01 2.3656041562633584e-01 3.8300619518493911e-01  4.8504966800230281e-01 2.3775638971769722e-01 3.8253685721776914e-01  4.8509164754105816e-01 2.3897237662842288e-01 3.8206985055136994e-01  4.8513631189266304e-01 2.4020598684647868e-01 3.8160659780192585e-01  4.8518353598923664e-01 2.4145182104423160e-01 3.8114948257547238e-01  4.8523309891555161e-01 2.4270354565173061e-01 3.8070092231173502e-01  4.8528461728940009e-01 2.4395053693262234e-01 3.8026492039849491e-01  4.8533790447736519e-01 2.4518767320122486e-01 3.7984343264496895e-01  4.8539178588660820e-01 2.4639099242022605e-01 3.7944390144164636e-01  4.8544492588733384e-01 2.4753317461457833e-01 3.7907488877580525e-01  4.8554042713614837e-01 2.4946560237295951e-01 3.7847964467710710e-01  4.8560149461391056e-01 2.5063585363836460e-01 3.7813590110151507e-01  4.8567049552973629e-01 2.5192033701689648e-01 3.7776851084517338e-01  4.8574545550579312e-01 2.5327681079260134e-01 3.7739094523462607e-01  4.8582508384333900e-01 2.5468079244532121e-01 3.7701016715186614e-01  4.8590814835457213e-01 2.5611239041968176e-01 3.7663087151829044e-01  4.8599461812750883e-01 2.5757347851430568e-01 3.7625169090109029e-01  4.8616111003546064e-01 2.6036485564826151e-01 3.7553063611947490e-01  4.8621200236262935e-01 2.6122727180533306e-01 3.7530384795853527e-01  4.8624483205924551e-01 2.6180123527934041e-01 3.7514691895971813e-01  4.8626569188592600e-01 2.6218143650641351e-01 3.7503799366882257e-01  4.8627635611577863e-01 2.6239727778339050e-01 3.7496966225273254e-01  4.8627985232800019e-01 2.6249318491709223e-01 3.7493248247860433e-01  4.8627919622814153e-01 2.6251216888960544e-01 3.7491773023157871e-01  4.8628189409751188e-01 2.6254829949906799e-01 3.7491130306587667e-01  4.8629736519798866e-01 2.6272950894136299e-01 3.7488970388273624e-01  4.8632902168741760e-01 2.6310864662660916e-01 3.7484056811987804e-01  4.8638046214893244e-01 2.6372850767172257e-01 3.7475837463613809e-01  4.8645711961608346e-01 2.6465273730189776e-01 3.7463521390903837e-01  4.8656463549058054e-01 2.6594273662632434e-01 3.7446530207748041e-01  4.8671081731791438e-01 2.6767910576829246e-01 3.7424278487945345e-01  4.8690940025513002e-01 2.7000742002905936e-01 3.7395475766327185e-01  4.8719410350942083e-01 2.7329533267555806e-01 3.7356342227920852e-01  4.8832081700809726e-01 2.8591937208365265e-01 3.7217222880961354e-01  4.8878087174857759e-01 2.9087759349167724e-01 3.7168997908848378e-01  4.8919356496527572e-01 2.9519324450062473e-01 3.7132040217313705e-01  4.8955827967985410e-01 2.9889515319419396e-01 3.7105000868485455e-01  4.8986058529216397e-01 3.0187927287876376e-01 3.7086987197285781e-01  4.9017155605221763e-01 3.0479989098107568e-01 3.7076796135628715e-01  4.9044082131416755e-01 3.0722246005044074e-01 3.7073787228330446e-01  4.9085448958867417e-01 3.1088276143313642e-01 3.7071824841936063e-01  4.9249166701403846e-01 3.2495513826561429e-01 3.7079319141904682e-01  4.9324968939946062e-01 3.3123829601790300e-01 3.7091468072271050e-01  4.9395829234898353e-01 3.3695906682424154e-01 3.7108804134269274e-01  4.9465082803594579e-01 3.4240796384584971e-01 3.7131490951176682e-01  4.9534177550098751e-01 3.4770873525000534e-01 3.7159621260836512e-01  4.9604328931293601e-01 3.5296343640237626e-01 3.7193184075692826e-01  4.9677741925704094e-01 3.5833954640627369e-01 3.7232872286916258e-01  4.9842137642878021e-01 3.7002240245381324e-01 3.7333484351561141e-01  4.9896991257638046e-01 3.7382144244767718e-01 3.7370053463193420e-01  4.9939303741270030e-01 3.7670714482521156e-01 3.7399860594542644e-01  4.9970849056135530e-01 3.7882680721588707e-01 3.7423427890714117e-01  5.0004910037018790e-01 3.8104708346163402e-01 3.7452502935585075e-01  5.0031317645035589e-01 3.8271392355542977e-01 3.7478014755537153e-01  5.0063701254574466e-01 3.8472994250900627e-01 3.7510598798578992e-01  5.0100390208187073e-01 3.8698374004924618e-01 3.7548778112004416e-01  5.0139696450787585e-01 3.8936503317928289e-01 3.7591021612724840e-01  5.0180935483754407e-01 3.9182954629144473e-01 3.7636621549123950e-01  5.0223371332225397e-01 3.9433104383460527e-01 3.7684812888408381e-01  5.0266125941855255e-01 3.9681614792477343e-01 3.7734667964413848e-01  5.0308054547022230e-01 3.9921946756670146e-01 3.7784804991604820e-01  5.0389309795532344e-01 4.0377088376445147e-01 3.7886054469682556e-01  5.0439364612852078e-01 4.0650832480392762e-01 3.7950908589169530e-01  5.0493096369551715e-01 4.0940079473278063e-01 3.8022105773394738e-01  5.0549981039586211e-01 4.1241286594139892e-01 3.8099093893023733e-01  5.0609429510976656e-01 4.1550905749706801e-01 3.8181152877130120e-01  5.0671094891244994e-01 4.1866592583660883e-01 3.8267934171828943e-01  5.0734865859861622e-01 4.2187339290248188e-01 3.8359368999600330e-01  5.0800550595223615e-01 4.2511770440866070e-01 3.8455275844522713e-01  5.0867909851224613e-01 4.2838353966589915e-01 3.8555385506274586e-01  5.0936988807167649e-01 4.3166904014541618e-01 3.8659859117428425e-01  5.1007684450815760e-01 4.3496632162317694e-01 3.8768602647071604e-01  5.1079841262054237e-01 4.3826520163635946e-01 3.8881444610955579e-01  5.1153744996114348e-01 4.4157459523741410e-01 3.8998936213216551e-01  5.1229068829466318e-01 4.4487455406581833e-01 3.9120697985580838e-01  5.1306397255670733e-01 4.4818900981982640e-01 3.9247684997141818e-01  5.1462660527152648e-01 4.5466761268012840e-01 3.9510120990313996e-01  5.1539573289933183e-01 4.5774885436505991e-01 3.9642143251823436e-01  5.1617772803476969e-01 4.6081230271032758e-01 3.9778184573230180e-01  5.1698178168964171e-01 4.6388566837773987e-01 3.9920038211370179e-01  5.1781263149245182e-01 4.6698627499085249e-01 4.0068426849075078e-01  5.1869084966898027e-01 4.7018270406065826e-01 4.0227096760714615e-01  5.1966418982194273e-01 4.7363187592013345e-01 4.0404827403746890e-01  5.2211635585547855e-01 4.8196654320689897e-01 4.0859229499201483e-01  5.2301680124335315e-01 4.8489957238905240e-01 4.1028491343993256e-01  5.2378740039104277e-01 4.8734479350954923e-01 4.1174670011658587e-01  5.2447510804919972e-01 4.8947324933320246e-01 4.1306412188211711e-01  5.2509827178658131e-01 4.9135656276810497e-01 4.1427027614680817e-01  5.2566214680939938e-01 4.9302151284183665e-01 4.1537358622175868e-01  5.2616528157609777e-01 4.9447403474606694e-01 4.1636907248374283e-01  5.2659572355058848e-01 4.9569039702991230e-01 4.1723026064581087e-01  5.2715297910147418e-01 4.9721558969463686e-01 4.1836504559568399e-01  5.2752633337038712e-01 4.9820583004999747e-01 4.1913777179582390e-01  5.2798540262183435e-01 4.9940069867244252e-01 4.2009534812355254e-01  5.2925494164693399e-01 5.0260475208278144e-01 4.2277194649960331e-01  5.2980249254583534e-01 5.0394242547736667e-01 4.2393823656032387e-01  5.3030425867382180e-01 5.0514151202629531e-01 4.2501416129437242e-01  5.3078152673498158e-01 5.0625804736167046e-01 4.2604417616755080e-01  5.3124450908705201e-01 5.0731827784101646e-01 4.2704991735543790e-01  5.3170276937476080e-01 5.0834603638119780e-01 4.2805128498974926e-01  5.3217287525194368e-01 5.0937888079573168e-01 4.2908435454024724e-01  5.3326751430250441e-01 5.1171192716194136e-01 4.3150866870736238e-01  5.3363984630418393e-01 5.1248276610300625e-01 4.3233902569768617e-01  5.3394347522191299e-01 5.1310114436941989e-01 4.3301882752069859e-01  5.3420080417320870e-01 5.1361751191080440e-01 4.3359722270240164e-01  5.3442224401097371e-01 5.1405593911880854e-01 4.3409686307731205e-01  5.3461381365178406e-01 5.1443066691051142e-01 4.3453068731584693e-01  5.3477901330643773e-01 5.1475030963276169e-01 4.3490606691246109e-01  5.3492018726662538e-01 5.1502083674160848e-01 4.3522783457360847e-01  5.3503946015696069e-01 5.1524749824523297e-01 4.3550040486199931e-01  5.3513796960280557e-01 5.1543338323533539e-01 4.3572602623015094e-01  5.3521700112203385e-01 5.1558165735640593e-01 4.3590736220105458e-01  5.3527706325239421e-01 5.1569384442472677e-01 4.3604535673036476e-01  5.3531885203254637e-01 5.1577166315844514e-01 4.3614144869288457e-01  5.3534332884778812e-01 5.1581715887742952e-01 4.3619775915748854e-01  5.3535439758320291e-01 5.1583720543204203e-01 4.3622359224354085e-01  5.3536744991035590e-01 5.1585968997073928e-01 4.3625487413469083e-01  5.3539113556690665e-01 5.1590064090308463e-01 4.3631151300982524e-01  5.3542576344357740e-01 5.1596056308079652e-01 4.3639423720272552e-01  5.3547419468614355e-01 5.1604453437235032e-01 4.3650973898986117e-01  5.3559266075270862e-01 5.1625008441036524e-01 4.3679185193198011e-01  5.3558419884403718e-01 5.1623817827884755e-01 4.3676973910404554e-01  5.3559033827861791e-01 5.1625089457524687e-01 4.3678285550225038e-01  5.3559687442334036e-01 5.1626366514899014e-01 4.3679736358600957e-01  5.3560132202499722e-01 5.1627225428028789e-01 4.3680730533731149e-01  5.3560089292337487e-01 5.1627142701232076e-01 4.3680634531850304e-01  5.3559472112180795e-01 5.1625954545461905e-01 4.3679252109677214e-01  5.3558286488878093e-01 5.1623699887832875e-01 4.3676574393316081e-01  5.3573701028654463e-01 5.1649134165482480e-01 4.3714135194108850e-01  5.3583105421749810e-01 5.1664976859158762e-01 4.3736777705760149e-01  5.3592824867466482e-01 5.1681288974814765e-01 4.3760186869708273e-01  5.3602941769346135e-01 5.1698178371773174e-01 4.3784578722405293e-01  5.3613488816531341e-01 5.1715677699747098e-01 4.3810042520781983e-01  5.3624473655337723e-01 5.1733782783864257e-01 4.3836603599753832e-01  5.3635981404043198e-01 5.1752617140819956e-01 4.3864472784833475e-01  5.3648217491802697e-01 5.1772499920175019e-01 4.3894150578946306e-01  5.3661677071083291e-01 5.1794208423955634e-01 4.3926843270174903e-01  5.3695114520639908e-01 5.1847527410373040e-01 4.4008228217842776e-01  5.3707742606923403e-01 5.1867430522848446e-01 4.4039031804482504e-01  5.3718736918374377e-01 5.1884630218098005e-01 4.4065891443439942e-01  5.3728558181574992e-01 5.1899883205377340e-01 4.4089924329810287e-01  5.3737482477526199e-01 5.1913648148018821e-01 4.4111797937202979e-01  5.3745612466240478e-01 5.1926105142302048e-01 4.4131757519147946e-01  5.3753026987098240e-01 5.1937394701592143e-01 4.4149989971912346e-01  5.3759772141286666e-01 5.1947604240353573e-01 4.4166602352260004e-01  5.3765873784293350e-01 5.1956788413225974e-01 4.4181652351740841e-01  5.3771319184515542e-01 5.1964941922567920e-01 4.4195103036272348e-01  5.3776079434081325e-01 5.1972034882693718e-01 4.4206877542371065e-01  5.3780052041252158e-01 5.1977927660748580e-01 4.4216716829584801e-01  5.3785349992080267e-01 5.1985731893965381e-01 4.4229867507066123e-01  5.3788892860912707e-01 5.1990914288415691e-01 4.4238681015066916e-01  5.3792969681838865e-01 5.1996855216209203e-01 4.4248833360198903e-01  5.3797710461908588e-01 5.2003739724418263e-01 4.4260648860357032e-01  5.3807609208866380e-01 5.2018082616998129e-01 4.4285323390839587e-01  5.3808546845003835e-01 5.2019446487557564e-01 4.4287655477255494e-01  5.3808868109174723e-01 5.2019915790091087e-01 4.4288452812295154e-01  5.3808874520144767e-01 5.2019925158948144e-01 4.4288468717295520e-01  5.3808706153667663e-01 5.2019677154908828e-01 4.4288052422173535e-01  5.3808668441533869e-01 5.2019614571682060e-01 4.4287964225759363e-01  5.3809148513106764e-01 5.2020296432032764e-01 4.4289169526135802e-01  5.3811841184768627e-01 5.2024154498263453e-01 4.4295904362319349e-01  5.3813008810939045e-01 5.2025831203935669e-01 4.4298821182929021e-01  5.3813823011128903e-01 5.2027003070146050e-01 4.4300852753503794e-01  5.3814310536574461e-01 5.2027705994401996e-01 4.4302068120521920e-01  5.3814468011869965e-01 5.2027933083373157e-01 4.4302460640042979e-01  5.3814358668160978e-01 5.2027774778997460e-01 4.4302188567173589e-01  5.3814048658966740e-01 5.2027325740232233e-01 4.4301417317562963e-01  5.3813612517059528e-01 5.2026690135123432e-01 4.4300335077669462e-01  5.3815058608373167e-01 5.2028697160815618e-01 4.4303998376173026e-01  5.3816727310516976e-01 5.2031057816058857e-01 4.4308191556857918e-01  5.3818193547951176e-01 5.2033130845865727e-01 4.4311876058917760e-01  5.3819419028222759e-01 5.2034861286733158e-01 4.4314956628310592e-01  5.3820343740680332e-01 5.2036165209415775e-01 4.4317282155570709e-01  5.3821225404283979e-01 5.2037403108408431e-01 4.4319503078231753e-01  5.3821841012881599e-01 5.2038262155399273e-01 4.4321057559324301e-01  5.3822593539