<?xml version="1.0"?>
<VTKFile type="UnstructuredGrid"  version="0.1"  >
<UnstructuredGrid>
<Piece  NumberOfPoints="7288" NumberOfCells="14083">
<Points>
<DataArray  type="Float64"  NumberOfComponents="3"  format="ascii">239.8 188 0  250.2 180 0  258.2 172.4 0  257 169.4 0  259.9 157.4 0  258.7 150.3 0  261 143.5 0  251.7 144.4 0  250 138.7 0  247 138.1 0  245.2 130.8 0  247.3 126.4 0  242.7 118.6 0  231.2 107.7 0  226 102.4 0  226.5 93.90000000000001 0  224.5 91.19999999999999 0  224.5 84.09999999999999 0  234.5 73.80000000000001 0  228.4 68.90000000000001 0  230 70 0  233.4 68 0  222.7 61.5 0  220.6 45.5 0  223.4 49.40000000000001 0  224 47 0  221.8 43.09999999999999 0  221 38.40000000000001 0  219.5 38.5 0  219.4 41.69999999999999 0  217.1 36.90000000000001 0  209.7 36 0  209.5 31.69999999999999 0  205.1 29.90000000000001 0  201.5 30.40000000000001 0  199.2 38.69999999999999 0  201.8 41.40000000000001 0  194.8 53.80000000000001 0  196.1 57.69999999999999 0  193 59 0  191.4 66.09999999999999 0  193.5 66.5 0  194.1 64.40000000000001 0  195.6 64.69999999999999 0  195.4 72.40000000000001 0  199.5 77.30000000000001 0  197.7 86.90000000000001 0  200.6 87.5 0  201.5 91 0  198 94.80000000000001 0  198.6 100 0  197.3 105.4 0  198 109.5 0  197 112.7 0  198.3 116.1 0  201.3 122 0  207.2 121 0  208.1 126.7 0  205.6 127.9 0  209.1 134.9 0  210.9 144.4 0  210.1 147.9 0  213 148.4 0  215.4 149.3 0  215.1 152.8 0  219.9 159.7 0  220.3 163.2 0  218.7 164.9 0  219.9 166.7 0  221.9 169.7 0  220 170.3 0  224.9 174.7 0  229.8 177.4 0  229.7 181 0  228 172.9 0  239 178 0  240.4 180 0  239 181.5 0  241.2 185.9 0  242.95 187.99 0  240.5875 187.9975 0  241.375 187.995 0  242.1625 187.9925 0  243.6090909090879 187.2636363636397 0  244.2681818181765 186.5372727272785 0  244.9272727272692 185.810909090913 0  245.5863636363531 185.0845454545571 0  246.245454545445 184.3581818181923 0  246.9045454545351 183.6318181818295 0  247.5636363636303 182.9054545454612 0  248.2227272727197 182.1790909090992 0  248.8818181818179 181.4527272727275 0  249.5409090909066 180.7263636363664 0  250.8666666666961 179.3666666666387 0  251.5333333334033 178.7333333332668 0  252.2000000000994 178.0999999999055 0  252.8666666668011 177.466666666539 0  253.5333333335083 176.8333333331671 0  254.2000000002044 176.1999999998058 0  254.8666666669005 175.5666666664445 0  255.5333333336077 174.9333333330727 0  256.2000000002685 174.2999999997449 0  256.8666666668457 173.6666666664966 0  257.5333333334283 173.033333333243 0  257.9000000000077 171.6500000000191 0  257.6000000000015 170.9000000000038 0  257.2999999999954 170.1499999999885 0  257.2230769230778 168.4769230769195 0  257.4461538461543 167.5538461538442 0  257.6692307692309 166.6307692307688 0  257.8923076923074 165.7076923076935 0  258.115384615384 164.7846153846181 0  258.3384615384605 163.8615384615427 0  258.5615384615395 162.9384615384572 0  258.784615384616 162.0153846153819 0  259.0076923076926 161.0923076923065 0  259.2307692307691 160.1692307692311 0  259.4538461538457 159.2461538461558 0  259.6769230769222 158.3230769230804 0  259.750000000001 156.512500000006 0  259.6000000000014 155.6250000000082 0  259.4500000000029 154.7375000000176 0  259.3000000000018 153.8500000000108 0  259.1500000000007 152.962500000004 0  259.0000000000004 152.0750000000026 0  258.849999999999 151.187499999994 0  258.9875000000052 149.4499999999846 0  259.275000000002 148.5999999999941 0  259.5624999999954 147.7500000000135 0  259.849999999995 146.900000000015 0  260.1374999999945 146.0500000000164 0  260.4249999999913 145.2000000000259 0  260.7124999999948 144.3500000000154 0  260.0700000000398 143.5899999999961 0  259.1400000000573 143.6799999999944 0  258.2100000000351 143.7699999999966 0  257.2800000000262 143.8599999999975 0  256.350000000011 143.9499999999989 0  255.4199999999881 144.0400000000011 0  254.4899999999726 144.1300000000026 0  253.5599999999944 144.2200000000005 0  252.6300000000009 144.3099999999999 0  251.4166666666658 143.4499999999971 0  251.1333333333388 142.5000000000182 0  250.8500000000015 141.5500000000051 0  250.5666666666612 140.5999999999818 0  250.2833333333342 139.6500000000029 0  249.2500000000005 138.5500000000001 0  248.5000000000011 138.4000000000002 0  247.7499999999995 138.2499999999999 0  246.7750000000005 137.1875000000023 0  246.5500000000021 136.2750000000085 0  246.3250000000036 135.3625000000147 0  246.1000000000042 134.450000000017 0  245.8750000000022 133.5375000000088 0  245.650000000003 132.6250000000124 0  245.4250000000046 131.7125000000187 0  245.619999999996 129.9200000000084 0  246.0399999999992 129.0400000000017 0  246.4599999999987 128.1600000000028 0  246.8800000000001 127.2799999999997 0  246.8399999999988 125.6199999999979 0  246.3799999999984 124.8399999999973 0  245.9199999999991 124.0599999999985 0  245.4600000000036 123.2800000000062 0  245.0000000000049 122.5000000000082 0  244.5400000000036 121.7200000000062 0  244.0800000000033 120.9400000000056 0  243.6200000000016 120.1600000000027 0  243.1600000000012 119.3800000000021 0  241.9812499999996 117.9187499999997 0  241.2625000000007 117.2375000000007 0  240.5437500000017 116.5562500000017 0  239.8250000000041 115.875000000004 0  239.1062500000066 115.1937500000063 0  238.3875000000076 114.5125000000072 0  237.6687500000087 113.8312500000082 0  236.9500000000083 113.1500000000079 0  236.231250000008 112.4687500000076 0  235.512500000009 111.7875000000085 0  234.7937500000045 111.1062500000043 0  234.0750000000042 110.4250000000039 0  233.3562500000066 109.7437500000062 0  232.6375000000021 109.062500000002 0  231.9187500000031 108.381250000003 0  230.5500000000004 107.0375000000004 0  229.9000000000021 106.3750000000021 0  229.2500000000038 105.7125000000039 0  228.6000000000041 105.0500000000042 0  227.9500000000018 104.3875000000018 0  227.2999999999952 103.7249999999951 0  226.6500000000024 103.0625000000024 0  226.0555555555555 101.4555555555556 0  226.1111111111111 100.5111111111111 0  226.1666666666667 99.56666666666668 0  226.2222222222222 98.62222222222223 0  226.2777777777778 97.67777777777778 0  226.3333333333333 96.73333333333335 0  226.3888888888889 95.78888888888889 0  226.4444444444445 94.84444444444446 0  226 93.22499999999999 0  225.5000000000026 92.55000000000358 0  225.0000000000026 91.87500000000358 0  224.5 90.31250000000068 0  224.5 89.4250000000097 0  224.5 88.53750000001317 0  224.5 87.65000000001388 0  224.5 86.76250000001457 0  224.5 85.87500000001248 0  224.5 84.9874999999993 0  225.1666666666659 83.41333333333409 0  225.8333333333319 82.72666666666818 0  226.4999999999978 82.04000000000228 0  227.1666666666649 81.35333333333514 0  227.8333333333301 80.66666666667 0  228.4999999999942 79.980000000006 0  229.1666666666601 79.2933333333401 0  229.8333333333316 78.60666666666847 0  230.4999999999975 77.92000000000257 0  231.1666666666644 77.23333333333572 0  231.8333333333295 76.54666666667057 0  232.4999999999972 75.86000000000287 0  233.1666666666681 75.17333333333181 0  233.8333333333368 74.48666666666306 0  233.7499999999995 73.16666666666629 0  233.0000000000018 72.53333333333488 0  232.2500000000014 71.90000000000116 0  231.5000000000009 71.26666666666743 0  230.7500000000005 70.63333333333372 0  229.233333333333 68.75000000000006 0  230.0666666666665 68.60000000000004 0  230.8999999999995 68.45000000000009 0  231.7333333333325 68.30000000000015 0  232.566666666667 68.14999999999995 0  232.5499999999897 68.50000000000607 0  231.7 69 0  230.8500000000103 69.49999999999393 0  227.8300000000008 68.16000000000106 0  227.2600000000064 67.42000000000837 0  226.6900000000077 66.68000000001001 0  226.1200000000024 65.94000000000314 0  225.5500000000108 65.20000000001409 0  224.9800000000098 64.46000000001268 0  224.4100000000007 63.72000000000098 0  223.8399999999971 62.97999999999621 0  223.2699999999993 62.23999999999915 0  222.753846153846 60.56923076923239 0  222.8076923076921 59.63846153846478 0  222.8615384615381 58.70769230769827 0  222.9153846153842 57.77692307693071 0  222.9692307692302 56.84615384616315 0  223.0230769230761 55.91538461539836 0  223.0769230769224 54.98461538462665 0  223.1307692307688 54.05384615385345 0  223.184615384615 53.12307692308312 0  223.2384615384611 52.19230769231556 0  223.2923076923071 51.26153846154906 0  223.3461538461533 50.33076923077847 0  222.8400000000024 48.62000000000327 0  222.2800000000047 47.84000000000661 0  221.7200000000005 47.06000000000071 0  221.1600000000003 46.28000000000039 0  221.4500000000116 45.87500000000512 0  222.3 46.25 0  223.1499999999884 46.62499999999488 0  223.5600000000055 46.22000000000981 0  223.1199999999987 45.43999999999767 0  222.6800000000061 44.66000000001075 0  222.2399999999969 43.8799999999944 0  221.6400000000004 42.16000000000253 0  221.4800000000009 41.22000000000548 0  221.3200000000014 40.28000000000801 0  221.1600000000009 39.34000000000556 0  220.25 38.45 0  219.4749999999999 39.30000000000165 0  219.45 40.09999999999999 0  219.425 40.90000000000112 0  219.0166666666641 40.89999999999463 0  218.6333333333375 40.10000000000875 0  218.2500000000016 39.30000000000339 0  217.8666666666635 38.49999999999351 0  217.483333333337 37.70000000000762 0  216.1750000000165 36.78750000000201 0  215.2500000000275 36.67500000000335 0  214.3250000000385 36.56250000000469 0  213.4000000000277 36.45000000000337 0  212.4750000000059 36.33750000000072 0  211.5499999999838 36.22499999999803 0  210.6249999999835 36.11249999999799 0  209.6600000000001 35.14000000000318 0  209.6200000000001 34.28000000000268 0  209.5800000000001 33.42000000000284 0  209.5399999999998 32.55999999999681 0  208.6200000000117 31.34000000000476 0  207.7400000000138 30.98000000000564 0  206.8600000000162 30.62000000000662 0  205.9800000000174 30.26000000000711 0  204.2000000000054 30.02499999999925 0  203.2999999999946 30.15000000000076 0  202.3999999999945 30.27500000000076 0  201.2444444444438 31.32222222222468 0  200.9888888888895 32.24444444
[...]
<PointData  Vectors="f_12"> 
<DataArray  type="Float64"  Name="f_12"  NumberOfComponents="3" format="ascii">5.6288452534975686e-01 2.9351986944428587e-01 6.7725665640249422e-01  5.6284340472896033e-01 2.9335614869474530e-01 6.7723151146943217e-01  5.6276414200985747e-01 2.9303507864072881e-01 6.7718701194551045e-01  5.6270608283334100e-01 2.9279651025288578e-01 6.7715695543614041e-01  5.6209616518032546e-01 2.9027687952767561e-01 6.7684811913925458e-01  5.6134169557214697e-01 2.8718880190219181e-01 6.7644021842489377e-01  5.6113926176375151e-01 2.8635718945328609e-01 6.7632489259553741e-01  5.5840463665228801e-01 2.7597196991395034e-01 6.7422429183236288e-01  5.5346960144634694e-01 2.5864389384464304e-01 6.6885598580312100e-01  5.4988056861083501e-01 2.4757364579538640e-01 6.6340925581611643e-01  5.3320222058324263e-01 2.0425626643645264e-01 6.2706306035708637e-01  5.2652114141874129e-01 1.9035901623496554e-01 6.0771903610588340e-01  5.1547535774624975e-01 1.7506927756396040e-01 5.6851299638637931e-01  4.9367288072546983e-01 1.7316753364909271e-01 4.6439698634947135e-01  4.8773767310328442e-01 1.8898700918894190e-01 4.2441171568683617e-01  4.8559089208664369e-01 2.0264613835193768e-01 4.0523462676729877e-01  4.8533662497285818e-01 2.0632011439410933e-01 4.0180681487691844e-01  4.8495555264611218e-01 2.1449288936398311e-01 3.9514387118615657e-01  4.8480180107769166e-01 2.1881579620472219e-01 3.9183860290178513e-01  4.8479459718490692e-01 2.1889486919091275e-01 3.9175071839717629e-01  4.8479607078400044e-01 2.1891738105965217e-01 3.9174717153832811e-01  4.8479275618373180e-01 2.1902071931375089e-01 3.9166973445098391e-01  4.8481355974018769e-01 2.1669712830386284e-01 3.9309071646092392e-01  4.8522411222298983e-01 2.0532450529765295e-01 4.0175095566209207e-01  4.8505770351410249e-01 2.0865697262571650e-01 3.9896961823443283e-01  4.8526168627687066e-01 2.0454536621822444e-01 4.0239251244223062e-01  4.8527964873579182e-01 2.0428449774139332e-01 4.0263689282611020e-01  4.8532237212276830e-01 2.0350944731192092e-01 4.0330331826363330e-01  4.8532234486883269e-01 2.0351054821187398e-01 4.0330255977405810e-01  4.8531382759194880e-01 2.0375214763170585e-01 4.0312175755772062e-01  4.8542675394361556e-01 2.0214972518047439e-01 4.0463555132554097e-01  4.8561829188204181e-01 1.9990710427114713e-01 4.0693427419553541e-01  4.8577066200894170e-01 1.9811479126097023e-01 4.0876259001230453e-01  4.8580875932504602e-01 1.9769292476025763e-01 4.0920454204395457e-01  4.8581041656045298e-01 1.9768210864357993e-01 4.0921972103772236e-01  4.8564250751857363e-01 1.9974164411815679e-01 4.0716037842755981e-01  4.8544328251208924e-01 2.0258976272012205e-01 4.0448268406804960e-01  4.8478476123311626e-01 2.1691420585116394e-01 3.9277862278551645e-01  4.8472335374705627e-01 2.2038369779256450e-01 3.9045765002282112e-01  4.8469288877782413e-01 2.2248738736244317e-01 3.8908313715985560e-01  4.8469581835306047e-01 2.2604935667108761e-01 3.8705997417234511e-01  4.8469680798327802e-01 2.2582589775184408e-01 3.8719464788703128e-01  4.8468892864847679e-01 2.2386840447995354e-01 3.8827112083839183e-01  4.8469264512884075e-01 2.2439147986440638e-01 3.8799361162112195e-01  4.8472437977071581e-01 2.2548561798835953e-01 3.8755686049464338e-01  4.8481843315683887e-01 2.2264345512421926e-01 3.8974987552729440e-01  4.8494428362670622e-01 2.1853678063039833e-01 3.9282878389407039e-01  4.8495904905358989e-01 2.1759462658556561e-01 3.9343986305543516e-01  4.8499380883248722e-01 2.1500314159973696e-01 3.9507149575734657e-01  4.8498214946166396e-01 2.1390738438779056e-01 3.9558398816884194e-01  4.8497388343155395e-01 2.1298425763630038e-01 3.9600559910231437e-01  4.8499499526649031e-01 2.1186786333267563e-01 3.9668479182937028e-01  4.8512779509700177e-01 2.1012370263850838e-01 3.9836851469205153e-01  4.8526732492862806e-01 2.0874773281983192e-01 3.9989991232581901e-01  4.8555493892840745e-01 2.0655434526682265e-01 4.0272666935537543e-01  4.8641774599020393e-01 2.0157129817962244e-01 4.1030575002428582e-01  4.9077817686758574e-01 1.8878274867864198e-01 4.4100704114411543e-01  5.0431249829829305e-01 1.7526090980259579e-01 5.1742928960133794e-01  5.0723835056178113e-01 1.7467575898611762e-01 5.3190038698553388e-01  5.2022515666754887e-01 1.8653879152575506e-01 5.8412886859411906e-01  5.4205365265248917e-01 2.2621634036804869e-01 6.4829299888449743e-01  5.4481086068116713e-01 2.3286844236074991e-01 6.5428706364189082e-01  5.4597080817741017e-01 2.3618929281094550e-01 6.5647299521153002e-01  5.4970494458026320e-01 2.4722991533688485e-01 6.6291839539963349e-01  5.5399492939605066e-01 2.6059762654141805e-01 6.6931719434747960e-01  5.5939450251074052e-01 2.7974905687134016e-01 6.7497927119624990e-01  5.6110553801889695e-01 2.8636328201409594e-01 6.7622255152348576e-01  5.6151278311060593e-01 2.8797451670127072e-01 6.7647977211080856e-01  5.6170941318569134e-01 2.8876289881848299e-01 6.7659562986534172e-01  5.6201573164351182e-01 2.8999886060141100e-01 6.7677031438743462e-01  5.6196491024209827e-01 2.8979246279687204e-01 6.7674171280365469e-01  5.6234130302340246e-01 2.9132313066808913e-01 6.7694877762540218e-01  5.6269461612171268e-01 2.9276002048418903e-01 6.7714339218816733e-01  5.6273595641612473e-01 2.9292875350619141e-01 6.7716548709573343e-01  5.6242919861064156e-01 2.9167875602082710e-01 6.7699919558958177e-01  5.6277897169975055e-01 2.9309728993767581e-01 6.7719391237457061e-01  5.6284067928293458e-01 2.9334488654842572e-01 6.7723019809512919e-01  5.6286104194769271e-01 2.9342647808449174e-01 6.7724224311576553e-01  5.6288085026278101e-01 2.9350532193732809e-01 6.7725434953207631e-01  5.6288315860688132e-01 2.9351447417006460e-01 6.7725578712035994e-01  5.6288434704249457e-01 2.9351916498816227e-01 6.7725654345012509e-01  5.6288396649998729e-01 2.9351766238658600e-01 6.7725630173160045e-01  5.6288353750270947e-01 2.9351596950505660e-01 6.7725602841388843e-01  5.6288217277155317e-01 2.9351057856213791e-01 6.7725516304405775e-01  5.6288038286264397e-01 2.9350350134518222e-01 6.7725403303398402e-01  5.6287802312867674e-01 2.9349416364689512e-01 6.7725254860015838e-01  5.6287518185413188e-01 2.9348290848386521e-01 6.7725076983753107e-01  5.6287189131089399e-01 2.9346985705974954e-01 6.7724872174367479e-01  5.6286821089891892e-01 2.9345523842493382e-01 6.7724644595803751e-01  5.6286408922685083e-01 2.9343883921980612e-01 6.7724391752337032e-01  5.6285957221489469e-01 2.9342083593767299e-01 6.7724116902999620e-01  5.6285469078448191e-01 2.9340134516534777e-01 6.7723822403134071e-01  5.6284932019591838e-01 2.9337985874902917e-01 6.7723501479189119e-01  5.6283759412232448e-01 2.9333282288431117e-01 6.7722809589386646e-01  5.6283166908198301e-01 2.9330900097048912e-01 6.7722463924104337e-01  5.6282540273874015e-01 2.9328376287864588e-01 6.7722101530215539e-01  5.6281878313799150e-01 2.9325705766694748e-01 6.7721721912346733e-01  5.6281183910757426e-01 2.9322899801326907e-01 6.7721326978239305e-01  5.6280462357915473e-01 2.9319979616073777e-01 6.7720919853380035e-01  5.6279708125604544e-01 2.9316921934031737e-01 6.7720498120489536e-01  5.6278933982464574e-01 2.9313778278950481e-01 6.7720069111950654e-01  5.6278161559328121e-01 2.9310636410529489e-01 6.7719644897245457e-01  5.6277422232378549e-01 2.9307624154845169e-01 6.7719242613329733e-01  5.6276785222808035e-01 2.9305024501718763e-01 6.7718899251572606e-01  5.6275948377846619e-01 2.9301596516634676e-01 6.7718458231707068e-01  5.6274891268597815e-01 2.9297255998814048e-01 6.7717909036775581e-01  5.6273236920617009e-01 2.9290458633052230e-01 6.7717052508759767e-01  5.6267037051492585e-01 2.9264957113980827e-01 6.7713857512374920e-01  5.6263618505996904e-01 2.9250877314330609e-01 6.7712106025406116e-01  5.6260024085114702e-01 2.9236057978320007e-01 6.7710273364355533e-01  5.6256169677324752e-01 2.9220151679317136e-01 6.7708317058123069e-01  5.6252020836660421e-01 2.9203016109553470e-01 6.7706219426491943e-01  5.6247561357629017e-01 2.9184584995792451e-01 6.7703971365202853e-01  5.6242787408411776e-01 2.9164844038047250e-01 6.7701569310782594e-01  5.6237703843584241e-01 2.9143815850316995e-01 6.7699013468302915e-01  5.6232331820701764e-01 2.9121591452359280e-01 6.7696311476879634e-01  5.6226665038989121e-01 2.9098149591725858e-01 6.7693457114087974e-01  5.6220820040049624e-01 2.9073977528287176e-01 6.7690504992949052e-01  5.6214925077061395e-01 2.9049612328672259e-01 6.7687516134780079e-01  5.6203881201753014e-01 2.9004033376396293e-01 6.7681870901054597e-01  5.6196538339957802e-01 2.8973789102399261e-01 6.7678073432789110e-01  5.6188072543586154e-01 2.8938976958533341e-01 6.7673645315542419e-01  5.6178681142298303e-01 2.8900436665607099e-01 6.7668665679527518e-01  5.6168517014040875e-01 2.8858820518004880e-01 6.7663191104969889e-01  5.6157750709151844e-01 2.8814846317622556e-01 6.7657292442949890e-01  5.6146409973982214e-01 2.8768641560123726e-01 6.7650967802793505e-01  5.6124942825604918e-01 2.8681318422944169e-01 6.7638741182463824e-01  5.6118749490774200e-01 2.8656105690935313e-01 6.7635157572457694e-01  5.6115144953970919e-01 2.8641353558969002e-01 6.7633072654877902e-01  5.6113194284581469e-01 2.8633291074775447e-01 6.7631953122658184e-01  5.6112623031508391e-01 2.8630799519663336e-01 6.7631649067657673e-01  5.6112919585983900e-01 2.8631829941660164e-01 6.7631856896916709e-01  5.6113565627919249e-01 2.8634312541567669e-01 6.7632265137591530e-01  5.6113092223195771e-01 2.8632437327252214e-01 6.7631974220056079e-01  5.6109887011625992e-01 2.8619819370695182e-01 6.7629987840047245e-01  5.6103545593716908e-01 2.8594881405951950e-01 6.7626021702340455e-01  5.6093437437553928e-01 2.8555234128293944e-01 6.7619599841661515e-01  5.6078608155212017e-01 2.8497306646615178e-01 6.7609953156833580e-01  5.6058035008928908e-01 2.8417390883074989e-01 6.7596135063959062e-01  5.6030219678774318e-01 2.8310147544218056e-01 6.7576642869160242e-01  5.5992473165613188e-01 2.8165976304999107e-01 6.7548733243630654e-01  5.5938117777319041e-01 2.7960784660417826e-01 6.7505761819855226e-01  5.5717137599094546e-01 2.7146320953335917e-01 6.7307502255044938e-01  5.5622918024236234e-01 2.6808595977120142e-01 6.7211837225763427e-01  5.5535928366615050e-01 2.6503333780858179e-01 6.7116428842061093e-01  5.5456769321640531e-01 2.6231276960688737e-01 6.7023808525571471e-01  5.5389500134183089e-01 2.6004573528305869e-01 6.6940820546662894e-01  5.5318026111787222e-01 2.5772172044621156e-01 6.6845434651325975e-01  5.5254409334418897e-01 2.5572021964100855e-01 6.6754233415647990e-01  5.5155032336881482e-01 2.5264583058858781e-01 6.6605017928645094e-01  5.4746343519326379e-01 2.4042769746520204e-01 6.5931205670358928e-01  5.4548762637051418e-01 2.3478742447399670e-01 6.5568369627824985e-01  5.4359478378906034e-01 2.2957929872429333e-01 6.5194536727035990e-01  5.4170568135846087e-01 2.2457546247681517e-01 6.4795999436865059e-01  5.3978562034532873e-01 2.1968695891036275e-01 6.4365148990527088e-01  5.3780427314208312e-01 2.1483998036395274e-01 6.3894283564225640e-01  5.3570020164005916e-01 2.0989584760530464e-01 6.3366351485986794e-01  5.3089797849960507e-01 1.9923129327966235e-01 6.2069845748009056e-01  5.2927400504780131e-01 1.9581005404155913e-01 6.1603410420780325e-01  5.2801300937690065e-01 1.9324530383693245e-01 6.1229366619475667e-01  5.2706640843796015e-01 1.9138737565878006e-01 6.0941330985797237e-01  5.2602642532216481e-01 1.8950034438369140e-01 6.0613292168214083e-01  5.2520563462830283e-01 1.8813576127566350e-01 6.0345596144336311e-01  5.2419399269715539e-01 1.8651965785744329e-01 6.0009595256679094e-01  5.2304501097951916e-01 1.8475860422709531e-01 5.9620312662066055e-01  5.2181366213336267e-01 1.8295700898324269e-01 5.9194159344890507e-01  5.2052532558370601e-01 1.8116309180351828e-01 5.8738337241469496e-01  5.1920737096709757e-01 1.7942441486044983e-01 5.8261457994832300e-01  5.1789106589982503e-01 1.7778895118273905e-01 5.7774413771205246e-01  5.1661562757907553e-01 1.7630414280113182e-01 5.7291987584648729e-01  5.1420822701106561e-01 1.7382640482483977e-01 5.6349191415536570e-01  5.1277549770937025e-01 1.7256055939015880e-01 5.5767626999847109e-01  5.1127950202836903e-01 1.7138619372165448e-01 5.5145742544798249e-01  5.0974715388954206e-01 1.7034513779872579e-01 5.4492498081316632e-01  5.0820317104591262e-01 1.6946437170179893e-01 5.3817697957131028e-01  5.0666634960086643e-01 1.6876778735599413e-01 5.3128700889738745e-01  5.0514825289135801e-01 1.6826855967382132e-01 5.2430360553828570e-01  5.0366099543620291e-01 1.6797637664142318e-01 5.1728317351240183e-01  5.0221590281880901e-01 1.6789659811700236e-01 5.1028337293756298e-01  5.0081849109720922e-01 1.6803155288853347e-01 5.0333486066811073e-01  4.9947477242266403e-01 1.6837865315584827e-01 4.9647602110426958e-01  4.9819069483386885e-01 1.6893359483734735e-01 4.8974659846277291e-01  4.9696599000884628e-01 1.6969350621544599e-01 4.8315254506873695e-01  4.9581013720892053e-01 1.7065806717323920e-01 4.7674882399678759e-01  4.9471440685995910e-01 1.7181584226015664e-01 4.7050495000593306e-01  4.9275847533865530e-01 1.7459203831162201e-01 4.5887473930893236e-01  4.9191644124328604e-01 1.7613856047934312e-01 4.5363587797168131e-01  4.9113363638320112e-01 1.7780722499910404e-01 4.4861761008692874e-01  4.9040663880501539e-01 1.7960899196542562e-01 4.4379825169496845e-01  4.8972726206287615e-01 1.8154234625287455e-01 4.3913979701896522e-01  4.8908288930763449e-01 1.8363847034506620e-01 4.3456040387861072e-01  4.8844881135783175e-01 1.8599426227397328e-01 4.2987607563817332e-01  4.8713126995533190e-01 1.9186893004647868e-01 4.1955629185442012e-01  4.8673784853678498e-01 1.9396738765228361e-01 4.1627200172866002e-01  4.8644126706160074e-01 1.9573791889072542e-01 4.1368665914795372e-01  4.8620715851723001e-01 1.9729713001572752e-01 4.1155311621567142e-01  4.8601858694194711e-01 1.9869299935621706e-01 4.0975503164095922e-01  4.8586654547535402e-01 1.9994117548751511e-01 4.0823606245044519e-01  4.8574514846305006e-01 2.0104341741811149e-01 4.0696398140744305e-01  4.8565153191809718e-01 2.0197992139521753e-01 4.0593463678343406e-01  4.8554679288274372e-01 2.0319921598409266e-01 4.0468735281252433e-01  4.8548619471723564e-01 2.0402008148261153e-01 4.0390127449659052e-01  4.8541819666156955e-01 2.0502027914994697e-01 4.0297476641348301e-01  4.8525667606428097e-01 2.0769878112091891e-01 4.0060256464370420e-01  4.8519695299990628e-01 2.0881511940333580e-01 3.9965360698009811e-01  4.8514713956382410e-01 2.0982235380034917e-01 3.9881849200889202e-01  4.8510362826513476e-01 2.1076818412271739e-01 3.9805103741930620e-01  4.8506472458356853e-01 2.1167146276406881e-01 3.9733149065853818e-01  4.8502887312637627e-01 2.1255637318395479e-01 3.9663783960455051e-01  4.8499447941625479e-01 2.1344762982374541e-01 3.9594740719201366e-01  4.8492094656454604e-01 2.1543729752047866e-01 3.9441945964444058e-01  4.8489762943820752e-01 2.1608303099599438e-01 3.9392512973717220e-01  4.8487927052615953e-01 2.1659808154153060e-01 3.9353154834146986e-01  4.8486417988643532e-01 2.1702576328740830e-01 3.9320514065672457e-01  4.8485153716763657e-01 2.1738675740216232e-01 3.9292983145034943e-01  4.8484085290489520e-01 2.1769334094876802e-01 3.9269607299196080e-01  4.8483182598280661e-01 2.1795303070716146e-01 3.9249802004448969e-01  4.8482424629572285e-01 2.1817121449063032e-01 3.9233151578706316e-01  4.8481793638838855e-01 2.1835275032213017e-01 3.9219286715124840e-01  4.8481278696760921e-01 2.1850069948080106e-01 3.9207976762935015e-01  4.8480869450698982e-01 2.1861811528282843e-01 3.9198993591011216e-01  4.8480560375660664e-01 2.1870668878278271e-01 3.9192212703668111e-01  4.8480345971694838e-01 2.1876811571390256e-01 3.9187508656222453e-01  4.8480220513883704e-01 2.1880407006278957e-01 3.9184755114681791e-01  4.8480172932245863e-01 2.1881674657608979e-01 3.9183762665844413e-01  4.8480137608637369e-01 2.1882342562205026e-01 3.9183174074688060e-01  4.8480070867770236e-01 2.1883607290542126e-01 3.9182061736923440e-01  4.8479972505145802e-01 2.1885387198140391e-01 3.9180470411745533e-01  4.8479832010222029e-01 2.1887809963054791e-01 3.9178266672853657e-01  4.8479491131482849e-01 2.1892749823319912e-01 3.9173451816335847e-01  4.8479448820847959e-01 2.1895623444132961e-01 3.9171601713240994e-01  4.8479380938828692e-01 2.1898277989915677e-01 3.9169717496682205e-01  4.8479326726171368e-01 2.1900247629278649e-01 3.9168295823925620e-01  4.8479292071785296e-01 2.1901484472055613e-01 3.9167399268495362e-01  4.8479295392579697e-01 2.1901366014269771e-01 3.9167485150948234e-01  4.8479342493722566e-01 2.1899698692997549e-01 3.9168696071418901e-01  4.8479425154525763e-01 2.1896891325218640e-01 3.9170755039395205e-01  4.8479312233319821e-01 2.1885775535227614e-01 3.9176249974585492e-01  4.8479182798248771e-01 2.1880981973460659e-01 3.9178148764839260e-01  4.8479082919650901e-01 2.1873865819251501e-01 3.9181527345054273e-01  4.8479028469513458e-01 2.1863676054380302e-01 3.9186899138334380e-01  4.8479038626581561e-01 2.1849609323184005e-01 3.9194826504780211e-01  4.8479134182115424e-01 2.1830949068852665e-01 3.9205831198379465e-01  4.8479344448653244e-01 2.1806601995765293e-01 3.9220694954357954e-01  4.8479710995269543e-01 2.1774934326837272e-01 3.9240571965713811e-01  4.8480307011517221e-01 2.1732894356686677e-01 3.9267590961464849e-01  4.8482784570506043e-01 2.1594364557258852e-01 3.9359543903570271e-01  4.8484201115235670e-01 2.1527565883151742e-01 3.9405116405295409e-01  4.8485743441191737e-01 2.1461471173191712e-01 3.9450973761616187e-01  4.8487432605847386e-01 2.1395094105024551e-01 3.9497784011556958e-01  4.8489268076948450e-01 2.1328350287265557e-01 3.9545586015960849e-01  4.8491241929527468e-01 2.1261532484512305e-01 3.9594167623227317e-01  4.8493336632930972e-01 2.1195145251389921e-01 3.9643144771651456e-01  4.8495527233765895e-01 2.1129826221426209e-01 3.9692019092188591e-01  4.8497779338926095e-01 2.1066357224091992e-01 3.9740160965443277e-01  4.8500043224703532e-01 2.1005841309504270e-01 3.9786677490069589e-01  4.8502249774247785e-01 2.0949706528764145e-01 3.9830388742462258e-01  4.8504282189276415e-01 2.0900353536945987e-01 3.9869308233347611e-01  4.8507424151378897e-01 2.0829631942953886e-01 3.9926301482335658e-01  4.8509845808840962e-01 2.0778896599975699e-01 3.9968077818832393e-01  4.8512871091494747e-01 2.0717725914023366e-01 4.0018995505967353e-01  4.8516675919945834e-01 2.0643049094120200e-01 4.0081722231008343e-01  4.8525137639139621e-01 2.0477467221809842e-01 4.0220792560177321e-01  4.8525878933790662e-01 2.0461517626368866e-01 4.0233767984635105e-01  4.8526106067272645e-01 2.0456135619415342e-01 4.0238016757798872e-01  4.8526110533786204e-01 2.0456028312025745e-01 4.0238101099254592e-01  4.8526017997651005e-01 2.0458758290201987e-01 4.0236072297290643e-01  4.8526087004729762e-01 2.0459051857221852e-01 4.0236291463504908e-01  4.8526676504477867e-01 2.0450071874919051e-01 4.0244545194261272e-01  4.8529576725440315e-01 2.0400426548515860e-01 4.0288171072731405e-01  4.8530792679071399e-01 2.0378622184177134e-01 4.0306998613737621e-01  4.8531605459412985e-01 2.0363337116736419e-01 4.0319970604485467e-01  4.8532075306113909e-01 2.0354158037192727e-01 4.0327656183668281e-01  4.8532226579622439e-01 2.0351186293243434e-01 4.0330139304916035e-01  4.8532130153709263e-01 2.0353241289138199e-01 4.0328468070301482e-01  4.8531859803262772e-01 2.0359056307688281e-01 4.0323752425033249e-01  4.8531533112416592e-01 2.0367159889803094e-01 4.0317459558058966e-01  4.8534097530574510e-01 2.0337426045125098e-01 4.0348189471772827e-01  4.8536459601738824e-01 2.0303247731170423e-01 4.0380228003382213e-01  4.8538593157024024e-01 2.0272430642055392e-01 4.0409125024282594e-01  4.8540439267405638e-01 2.0246105945852186e-01 4.0433932331869760e-01  4.8541881918441654e-01 2.0225860177565713e-01 4.0453133072307862e-01  4.8543375235680902e-01 2.0206116119179837e-01 4.0472334173050423e-01  4.8544539477073795e-01 2.0191909413215844e-01 4.0486646228867568e-01  4.8546036038