<?xml version="1.0"?>
<VTKFile type="UnstructuredGrid"  version="0.1"  >
<UnstructuredGrid>
<Piece  NumberOfPoints="7288" NumberOfCells="14083">
<Points>
<DataArray  type="Float64"  NumberOfComponents="3"  format="ascii">239.8 188 0  250.2 180 0  258.2 172.4 0  257 169.4 0  259.9 157.4 0  258.7 150.3 0  261 143.5 0  251.7 144.4 0  250 138.7 0  247 138.1 0  245.2 130.8 0  247.3 126.4 0  242.7 118.6 0  231.2 107.7 0  226 102.4 0  226.5 93.90000000000001 0  224.5 91.19999999999999 0  224.5 84.09999999999999 0  234.5 73.80000000000001 0  228.4 68.90000000000001 0  230 70 0  233.4 68 0  222.7 61.5 0  220.6 45.5 0  223.4 49.40000000000001 0  224 47 0  221.8 43.09999999999999 0  221 38.40000000000001 0  219.5 38.5 0  219.4 41.69999999999999 0  217.1 36.90000000000001 0  209.7 36 0  209.5 31.69999999999999 0  205.1 29.90000000000001 0  201.5 30.40000000000001 0  199.2 38.69999999999999 0  201.8 41.40000000000001 0  194.8 53.80000000000001 0  196.1 57.69999999999999 0  193 59 0  191.4 66.09999999999999 0  193.5 66.5 0  194.1 64.40000000000001 0  195.6 64.69999999999999 0  195.4 72.40000000000001 0  199.5 77.30000000000001 0  197.7 86.90000000000001 0  200.6 87.5 0  201.5 91 0  198 94.80000000000001 0  198.6 100 0  197.3 105.4 0  198 109.5 0  197 112.7 0  198.3 116.1 0  201.3 122 0  207.2 121 0  208.1 126.7 0  205.6 127.9 0  209.1 134.9 0  210.9 144.4 0  210.1 147.9 0  213 148.4 0  215.4 149.3 0  215.1 152.8 0  219.9 159.7 0  220.3 163.2 0  218.7 164.9 0  219.9 166.7 0  221.9 169.7 0  220 170.3 0  224.9 174.7 0  229.8 177.4 0  229.7 181 0  228 172.9 0  239 178 0  240.4 180 0  239 181.5 0  241.2 185.9 0  242.95 187.99 0  240.5875 187.9975 0  241.375 187.995 0  242.1625 187.9925 0  243.6090909090879 187.2636363636397 0  244.2681818181765 186.5372727272785 0  244.9272727272692 185.810909090913 0  245.5863636363531 185.0845454545571 0  246.245454545445 184.3581818181923 0  246.9045454545351 183.6318181818295 0  247.5636363636303 182.9054545454612 0  248.2227272727197 182.1790909090992 0  248.8818181818179 181.4527272727275 0  249.5409090909066 180.7263636363664 0  250.8666666666961 179.3666666666387 0  251.5333333334033 178.7333333332668 0  252.2000000000994 178.0999999999055 0  252.8666666668011 177.466666666539 0  253.5333333335083 176.8333333331671 0  254.2000000002044 176.1999999998058 0  254.8666666669005 175.5666666664445 0  255.5333333336077 174.9333333330727 0  256.2000000002685 174.2999999997449 0  256.8666666668457 173.6666666664966 0  257.5333333334283 173.033333333243 0  257.9000000000077 171.6500000000191 0  257.6000000000015 170.9000000000038 0  257.2999999999954 170.1499999999885 0  257.2230769230778 168.4769230769195 0  257.4461538461543 167.5538461538442 0  257.6692307692309 166.6307692307688 0  257.8923076923074 165.7076923076935 0  258.115384615384 164.7846153846181 0  258.3384615384605 163.8615384615427 0  258.5615384615395 162.9384615384572 0  258.784615384616 162.0153846153819 0  259.0076923076926 161.0923076923065 0  259.2307692307691 160.1692307692311 0  259.4538461538457 159.2461538461558 0  259.6769230769222 158.3230769230804 0  259.750000000001 156.512500000006 0  259.6000000000014 155.6250000000082 0  259.4500000000029 154.7375000000176 0  259.3000000000018 153.8500000000108 0  259.1500000000007 152.962500000004 0  259.0000000000004 152.0750000000026 0  258.849999999999 151.187499999994 0  258.9875000000052 149.4499999999846 0  259.275000000002 148.5999999999941 0  259.5624999999954 147.7500000000135 0  259.849999999995 146.900000000015 0  260.1374999999945 146.0500000000164 0  260.4249999999913 145.2000000000259 0  260.7124999999948 144.3500000000154 0  260.0700000000398 143.5899999999961 0  259.1400000000573 143.6799999999944 0  258.2100000000351 143.7699999999966 0  257.2800000000262 143.8599999999975 0  256.350000000011 143.9499999999989 0  255.4199999999881 144.0400000000011 0  254.4899999999726 144.1300000000026 0  253.5599999999944 144.2200000000005 0  252.6300000000009 144.3099999999999 0  251.4166666666658 143.4499999999971 0  251.1333333333388 142.5000000000182 0  250.8500000000015 141.5500000000051 0  250.5666666666612 140.5999999999818 0  250.2833333333342 139.6500000000029 0  249.2500000000005 138.5500000000001 0  248.5000000000011 138.4000000000002 0  247.7499999999995 138.2499999999999 0  246.7750000000005 137.1875000000023 0  246.5500000000021 136.2750000000085 0  246.3250000000036 135.3625000000147 0  246.1000000000042 134.450000000017 0  245.8750000000022 133.5375000000088 0  245.650000000003 132.6250000000124 0  245.4250000000046 131.7125000000187 0  245.619999999996 129.9200000000084 0  246.0399999999992 129.0400000000017 0  246.4599999999987 128.1600000000028 0  246.8800000000001 127.2799999999997 0  246.8399999999988 125.6199999999979 0  246.3799999999984 124.8399999999973 0  245.9199999999991 124.0599999999985 0  245.4600000000036 123.2800000000062 0  245.0000000000049 122.5000000000082 0  244.5400000000036 121.7200000000062 0  244.0800000000033 120.9400000000056 0  243.6200000000016 120.1600000000027 0  243.1600000000012 119.3800000000021 0  241.9812499999996 117.9187499999997 0  241.2625000000007 117.2375000000007 0  240.5437500000017 116.5562500000017 0  239.8250000000041 115.875000000004 0  239.1062500000066 115.1937500000063 0  238.3875000000076 114.5125000000072 0  237.6687500000087 113.8312500000082 0  236.9500000000083 113.1500000000079 0  236.231250000008 112.4687500000076 0  235.512500000009 111.7875000000085 0  234.7937500000045 111.1062500000043 0  234.0750000000042 110.4250000000039 0  233.3562500000066 109.7437500000062 0  232.6375000000021 109.062500000002 0  231.9187500000031 108.381250000003 0  230.5500000000004 107.0375000000004 0  229.9000000000021 106.3750000000021 0  229.2500000000038 105.7125000000039 0  228.6000000000041 105.0500000000042 0  227.9500000000018 104.3875000000018 0  227.2999999999952 103.7249999999951 0  226.6500000000024 103.0625000000024 0  226.0555555555555 101.4555555555556 0  226.1111111111111 100.5111111111111 0  226.1666666666667 99.56666666666668 0  226.2222222222222 98.62222222222223 0  226.2777777777778 97.67777777777778 0  226.3333333333333 96.73333333333335 0  226.3888888888889 95.78888888888889 0  226.4444444444445 94.84444444444446 0  226 93.22499999999999 0  225.5000000000026 92.55000000000358 0  225.0000000000026 91.87500000000358 0  224.5 90.31250000000068 0  224.5 89.4250000000097 0  224.5 88.53750000001317 0  224.5 87.65000000001388 0  224.5 86.76250000001457 0  224.5 85.87500000001248 0  224.5 84.9874999999993 0  225.1666666666659 83.41333333333409 0  225.8333333333319 82.72666666666818 0  226.4999999999978 82.04000000000228 0  227.1666666666649 81.35333333333514 0  227.8333333333301 80.66666666667 0  228.4999999999942 79.980000000006 0  229.1666666666601 79.2933333333401 0  229.8333333333316 78.60666666666847 0  230.4999999999975 77.92000000000257 0  231.1666666666644 77.23333333333572 0  231.8333333333295 76.54666666667057 0  232.4999999999972 75.86000000000287 0  233.1666666666681 75.17333333333181 0  233.8333333333368 74.48666666666306 0  233.7499999999995 73.16666666666629 0  233.0000000000018 72.53333333333488 0  232.2500000000014 71.90000000000116 0  231.5000000000009 71.26666666666743 0  230.7500000000005 70.63333333333372 0  229.233333333333 68.75000000000006 0  230.0666666666665 68.60000000000004 0  230.8999999999995 68.45000000000009 0  231.7333333333325 68.30000000000015 0  232.566666666667 68.14999999999995 0  232.5499999999897 68.50000000000607 0  231.7 69 0  230.8500000000103 69.49999999999393 0  227.8300000000008 68.16000000000106 0  227.2600000000064 67.42000000000837 0  226.6900000000077 66.68000000001001 0  226.1200000000024 65.94000000000314 0  225.5500000000108 65.20000000001409 0  224.9800000000098 64.46000000001268 0  224.4100000000007 63.72000000000098 0  223.8399999999971 62.97999999999621 0  223.2699999999993 62.23999999999915 0  222.753846153846 60.56923076923239 0  222.8076923076921 59.63846153846478 0  222.8615384615381 58.70769230769827 0  222.9153846153842 57.77692307693071 0  222.9692307692302 56.84615384616315 0  223.0230769230761 55.91538461539836 0  223.0769230769224 54.98461538462665 0  223.1307692307688 54.05384615385345 0  223.184615384615 53.12307692308312 0  223.2384615384611 52.19230769231556 0  223.2923076923071 51.26153846154906 0  223.3461538461533 50.33076923077847 0  222.8400000000024 48.62000000000327 0  222.2800000000047 47.84000000000661 0  221.7200000000005 47.06000000000071 0  221.1600000000003 46.28000000000039 0  221.4500000000116 45.87500000000512 0  222.3 46.25 0  223.1499999999884 46.62499999999488 0  223.5600000000055 46.22000000000981 0  223.1199999999987 45.43999999999767 0  222.6800000000061 44.66000000001075 0  222.2399999999969 43.8799999999944 0  221.6400000000004 42.16000000000253 0  221.4800000000009 41.22000000000548 0  221.3200000000014 40.28000000000801 0  221.1600000000009 39.34000000000556 0  220.25 38.45 0  219.4749999999999 39.30000000000165 0  219.45 40.09999999999999 0  219.425 40.90000000000112 0  219.0166666666641 40.89999999999463 0  218.6333333333375 40.10000000000875 0  218.2500000000016 39.30000000000339 0  217.8666666666635 38.49999999999351 0  217.483333333337 37.70000000000762 0  216.1750000000165 36.78750000000201 0  215.2500000000275 36.67500000000335 0  214.3250000000385 36.56250000000469 0  213.4000000000277 36.45000000000337 0  212.4750000000059 36.33750000000072 0  211.5499999999838 36.22499999999803 0  210.6249999999835 36.11249999999799 0  209.6600000000001 35.14000000000318 0  209.6200000000001 34.28000000000268 0  209.5800000000001 33.42000000000284 0  209.5399999999998 32.55999999999681 0  208.6200000000117 31.34000000000476 0  207.7400000000138 30.98000000000564 0  206.8600000000162 30.62000000000662 0  205.9800000000174 30.26000000000711 0  204.2000000000054 30.02499999999925 0  203.2999999999946 30.15000000000076 0  202.3999999999945 30.27500000000076 0  201.2444444444438 31.32222222222468 0  200.9888888888895 32.24444444
[...]
<PointData  Vectors="f_12"> 
<DataArray  type="Float64"  Name="f_12"  NumberOfComponents="3" format="ascii">5.1366800961277415e-01 4.5214267886671622e-01 3.9260566921156281e-01  5.1379018949630084e-01 4.5259127281814965e-01 3.9285852280565092e-01  5.1399722030464845e-01 4.5335685516437113e-01 3.9327989592068774e-01  5.1413107484899867e-01 4.5385248040486897e-01 3.9354942477853566e-01  5.1537577239959309e-01 4.5839948603271174e-01 3.9604623494445595e-01  5.1668726853230540e-01 4.6299939960741326e-01 3.9870913239187133e-01  5.1705810812182307e-01 4.6431039929805740e-01 3.9944410666063979e-01  5.2086121161480659e-01 4.7565335530600544e-01 4.0789298604358531e-01  5.2716318726402644e-01 4.9164844120057327e-01 4.2252161238353209e-01  5.3124488449191820e-01 4.9909823136197029e-01 4.3298648286352082e-01  5.4825578434655942e-01 5.1650337669979640e-01 4.8011184293346104e-01  5.5438201780660079e-01 5.1724602989418755e-01 4.9874870173180880e-01  5.6279870100370566e-01 5.0491324557161266e-01 5.3257273839064223e-01  5.7445787833220252e-01 4.3387413342950565e-01 6.1676517666122532e-01  5.7456658068704847e-01 3.8870496880484784e-01 6.4876279334757248e-01  5.7293329024359807e-01 3.6004950956053805e-01 6.6354461210976545e-01  5.7229338490524850e-01 3.5360231389257363e-01 6.6606130165035593e-01  5.7079429185629826e-01 3.4065746770901351e-01 6.7039799900756225e-01  5.7003581620068622e-01 3.3476664953157093e-01 6.7208721471586097e-01  5.7003837357464882e-01 3.3475491020627851e-01 6.7210126855744612e-01  5.7002871301007052e-01 3.3469467679053500e-01 6.7211340335150027e-01  5.7001074459259160e-01 3.3456102076017225e-01 6.7214912811792582e-01  5.7042427611252544e-01 3.3756190107095574e-01 6.7134929652069641e-01  5.7211833439465154e-01 3.5129536167734243e-01 6.6695186938540063e-01  5.7162954847092340e-01 3.4712216063152807e-01 6.6838995960238357e-01  5.7223147253422935e-01 3.5225793026076735e-01 6.6661572784117507e-01  5.7226995815471327e-01 3.5260798467870230e-01 6.6648768094118549e-01  5.7238298467357795e-01 3.5359099523242921e-01 6.6613565339214365e-01  5.7238282774293125e-01 3.5358978533416868e-01 6.6613605658162012e-01  5.7234814353555630e-01 3.5331022176778515e-01 6.6623175497179932e-01  5.7258205113358596e-01 3.5546070757456305e-01 6.6543037689386131e-01  5.7290308485241104e-01 3.5857962597478604e-01 6.6421241468246961e-01  5.7315693247305022e-01 3.6104460254882287e-01 6.6323477644044826e-01  5.7321690950804738e-01 3.6163623354764307e-01 6.6299608355915829e-01  5.7321868331319781e-01 3.6165651833100954e-01 6.6298741797568250e-01  5.7292868727423873e-01 3.5887852153955985e-01 6.6408639549480952e-01  5.7252877990078277e-01 3.5518079437036337e-01 6.6549280136372202e-01  5.7055519721829639e-01 3.3838694212819587e-01 6.7118911800785264e-01  5.7007471135306698e-01 3.3472332134610977e-01 6.7223809573533366e-01  5.6978766111739376e-01 3.3256438517856340e-01 6.7283548025139939e-01  5.6926278448037360e-01 3.2884804905638321e-01 6.7376383942219631e-01  5.6929193952061918e-01 3.2905786763761175e-01 6.7371079168773007e-01  5.6958521335057666e-01 3.3111076941236478e-01 6.7320867877587964e-01  5.6950262542110275e-01 3.3053798075547630e-01 6.7334734295163678e-01  5.6929305605977243e-01 3.2915253895088614e-01 6.7365600693418881e-01  5.6958220340333776e-01 3.3144114078866621e-01 6.7300295053106773e-01  5.7015083882228368e-01 3.3569402916001018e-01 6.7185408018119519e-01  5.7035104635113953e-01 3.3713116567083412e-01 6.7148226354398244e-01  5.7100471513138451e-01 3.4179595078200775e-01 6.7026655186972672e-01  5.7149082914558447e-01 3.4515688171369813e-01 6.6941677475512384e-01  5.7195943777996683e-01 3.4873821155589246e-01 6.6837686077655212e-01  5.7252601775212264e-01 3.5352285639963177e-01 6.6681837047148573e-01  5.7297919738059300e-01 3.5831259084684836e-01 6.6494159375009532e-01  5.7326696123976040e-01 3.6182798734830873e-01 6.6343539927413053e-01  5.7352315940437948e-01 3.6620510192968236e-01 6.6128371410730824e-01  5.7384440101231471e-01 3.7558324356627915e-01 6.5604368594648732e-01  5.7342285046080255e-01 4.0354794619078016e-01 6.3626147845830261e-01  5.6894268317818264e-01 4.6296308408828785e-01 5.8164171091591721e-01  5.6769549949982623e-01 4.7309575402991799e-01 5.7063255262266122e-01  5.5937593355084614e-01 4.9793434837285966e-01 5.2848514242464706e-01  5.4153061016340165e-01 5.1138706599737338e-01 4.6164995364022676e-01  5.3892020134537610e-01 5.1039579787944112e-01 4.5330898562591010e-01  5.3755649519378523e-01 5.0860728309857328e-01 4.4971795742234710e-01  5.3311552749790114e-01 5.0210179188740578e-01 4.3803281037090303e-01  5.2784660179679033e-01 4.9290885204319640e-01 4.2441592940128081e-01  5.2009530792975456e-01 4.7337369836892568e-01 4.0629847976103273e-01  5.1729603298744642e-01 4.6475703401864393e-01 4.0017659541257983e-01  5.1660100547579690e-01 4.6250407252468922e-01 3.9868056536403401e-01  5.1624804220089260e-01 4.6131963079324906e-01 3.9793377915780537e-01  5.1567732360202911e-01 4.5936695821498141e-01 3.9673892354191087e-01  5.1578190688780268e-01 4.5973532317786520e-01 3.9695361498857579e-01  5.1502328646891593e-01 4.5706403510673471e-01 3.9539027833123042e-01  5.1420342376500916e-01 4.5409568165191816e-01 3.9371493390910622e-01  5.1410690416281835e-01 4.5374242562984302e-01 3.9351828062129046e-01  5.1481132171905475e-01 4.5629948427291234e-01 3.9495689249079979e-01  5.1396781329636476e-01 4.5324065489059956e-01 3.9322567156352367e-01  5.1379595444568538e-01 4.5261155285501292e-01 3.9287079037206718e-01  5.1373834256006512e-01 4.5240024060978745e-01 3.9275178053876808e-01  5.1367938205594643e-01 4.5218427843893533e-01 3.9262936543786447e-01  5.1367231743958064e-01 4.5215842569288189e-01 3.9261465908312071e-01  5.1366856858235044e-01 4.5214472240206111e-01 3.9260683532287310e-01  5.1366976597214176e-01 4.5214909938805936e-01 3.9260933397529602e-01  5.1367112130109627e-01 4.5215405321069713e-01 3.9261216290342482e-01  5.1367540336522477e-01 4.5216971120209448e-01 3.9262109344877255e-01  5.1368098343403579e-01 4.5219012423181631e-01 3.9263272164526286e-01  5.1368830002775701e-01 4.5221690171195500e-01 3.9264795607543590e-01  5.1369704556770890e-01 4.5224892773718495e-01 3.9266614600757049e-01  5.1370708549144339e-01 4.5228571935724626e-01 3.9268700117377592e-01  5.1371820383577760e-01 4.5232649588172441e-01 3.9271006183765000e-01  5.1373050753365235e-01 4.5237165951751940e-01 3.9273553813558304e-01  5.1374382681702269e-01 4.5242059637157878e-01 3.9276306846357861e-01  5.1375803569188749e-01 4.5247285241803076e-01 3.9279238216603746e-01  5.1377344545246417e-01 4.5252957906942376e-01 3.9282411135482070e-01  5.1380644751476356e-01 4.5265122235384658e-01 3.9289187922612034e-01  5.1382283416297880e-01 4.5271168901635589e-01 3.9292544507149973e-01  5.1383993832449915e-01 4.5277484568372761e-01 3.9296042273926113e-01  5.1385777932523025e-01 4.5284076261949030e-01 3.9299685011806784e-01  5.1387626197402225e-01 4.5290908752544318e-01 3.9303453021808460e-01  5.1389523800647829e-01 4.5297926953820589e-01 3.9307316110597951e-01  5.1391480868061634e-01 4.5305168247644306e-01 3.9311294469847141e-01  5.1393463088508962e-01 4.5312505338218961e-01 3.9315318436997793e-01  5.1395414641359205e-01 4.5319731142264158e-01 3.9319274986860603e-01  5.1397257193267976e-01 4.5326555017250264e-01 3.9323006002907696e-01  5.1398822921595699e-01 4.5332354696591720e-01 3.9326172903155149e-01  5.1400813343948615e-01 4.5339728973649857e-01 3.9330189750638961e-01  5.1403272171540937e-01 4.5348837710060524e-01 3.9335144286362533e-01  5.1407090595658511e-01 4.5362978105544383e-01 3.9342833840813635e-01  5.1421200391046618e-01 4.5415179601120703e-01 3.9371215482641531e-01  5.1428838615146544e-01 4.5443399504562720e-01 3.9386559459859577e-01  5.1436745115228544e-01 4.5472573092695379e-01 3.9402428579858167e-01  5.1445086989726452e-01 4.5503307296994833e-01 3.9419159523038444e-01  5.1453919145064231e-01 4.5535792382419710e-01 3.9436863700078273e-01  5.1463256779013400e-01 4.5570070534523238e-01 3.9455573348649198e-01  5.1473089251353177e-01 4.5606087432264436e-01 3.9475269546781178e-01  5.1483390172639631e-01 4.5643730530095378e-01 3.9495902982097519e-01  5.1494098768089713e-01 4.5682759027437769e-01 3.9517356241217561e-01  5.1505205682363298e-01 4.5723115926069402e-01 3.9539618561537104e-01  5.1516480313791957e-01 4.5763951418084658e-01 3.9562232661006663e-01  5.1527666353889834e-01 4.5804320014207561e-01 3.9584693849815850e-01  5.1548060025125886e-01 4.5877429058177754e-01 3.9625758982932735e-01  5.1561290526303349e-01 4.5924529692940008e-01 3.9652481617636304e-01  5.1576342154269927e-01 4.5977866282163099e-01 3.9682934787295165e-01  5.1592814158410616e-01 4.6035934308132764e-01 3.9716328461061484e-01  5.1610417201720238e-01 4.6097653915600872e-01 3.9752085590743974e-01  5.1628855056627176e-01 4.6161950064728269e-01 3.9789607245136738e-01  5.1648089131787145e-01 4.6228666223378923e-01 3.9828813926698614e-01  5.1684523810933969e-01 4.6354702796339231e-01 3.9902926466631639e-01  5.1695225207073203e-01 4.6391831058874949e-01 3.9924537986888853e-01  5.1701714883112093e-01 4.6414615958929822e-01 3.9937462149782921e-01  5.1705483125391438e-01 4.6428103030621293e-01 3.9944806478672445e-01  5.1706975488329698e-01 4.6433831530300806e-01 3.9947486036296276e-01  5.1706975945796985e-01 4.6434410770086754e-01 3.9947148083995826e-01  5.1706269549534123e-01 4.6432435562630758e-01 3.9945448287104851e-01  5.1706972198775292e-01 4.6434715358548379e-01 3.9946953640408128e-01  5.1711493485736393e-01 4.6449074528298473e-01 3.9956819152068890e-01  5.1720504413780877e-01 4.6477681219552197e-01 3.9976466773585323e-01  5.1734899131169110e-01 4.6523187833671525e-01 4.0007907345461735e-01  5.1756016498454360e-01 4.6589475702247934e-01 4.0054167335614305e-01  5.1785240827273704e-01 4.6680303343166429e-01 4.0118431158833801e-01  5.1824541652647804e-01 4.6800818717560339e-01 4.0205240225273853e-01  5.1877447766541973e-01 4.6960316819165021e-01 4.0322630135696380e-01  5.1952780457442893e-01 4.7182536893806620e-01 4.0490533406309803e-01  5.2250828446689979e-01 4.8020814852060784e-01 4.1161678999237128e-01  5.2373712104195536e-01 4.8346600972985354e-01 4.1442389029316540e-01  5.2484551208743668e-01 4.8627060336415162e-01 4.1699032812143677e-01  5.2583175291248485e-01 4.8864908039801314e-01 4.1931036283178180e-01  5.2665355881387177e-01 4.9053942166732284e-01 4.2127643890163541e-01  5.2750087291418812e-01 4.9232263443932672e-01 4.2337244197607921e-01  5.2823582515639789e-01 4.9373995479905519e-01 4.2523976057368645e-01  5.2936875240208237e-01 4.9582493908782793e-01 4.2814256107760729e-01  5.3390203521609370e-01 5.0336531708193677e-01 4.3993109317934992e-01  5.3602227349348897e-01 5.0640530759104929e-01 4.4555810207290186e-01  5.3800872417562129e-01 5.0891211345360310e-01 4.5091635384341305e-01  5.3995020218081247e-01 5.1103068490291392e-01 4.5624525151799566e-01  5.4188391768558086e-01 5.1280917528303738e-01 4.6165068018873867e-01  5.4384092005434359e-01 5.1428145584708906e-01 4.6722013146433622e-01  5.4587993081821740e-01 5.1548172436308348e-01 4.7312334980482229e-01  5.5041353200366361e-01 5.1714673917506371e-01 4.8653175581389391e-01  5.5191194340925287e-01 5.1740194817783691e-01 4.9104656054622553e-01  5.5305787425321407e-01 5.1744841905583061e-01 4.9455684562962127e-01  5.5390414470937155e-01 5.1736791229731471e-01 4.9720625289954118e-01  5.5479716638182208e-01 5.1699572621802659e-01 5.0018703521517571e-01  5.5547113089425415e-01 5.1646885678165899e-01 5.0260296009613659e-01  5.5628621776097931e-01 5.1570166177982091e-01 5.0560821736040351e-01  5.5719512320925080e-01 5.1470132096179788e-01 5.0904990463715205e-01  5.5815045273313912e-01 5.1348260119227007e-01 5.1277260113472523e-01  5.5913125288866505e-01 5.1205570713010884e-01 5.1670423288821010e-01  5.6011572077984240e-01 5.1043695202214168e-01 5.2076834294081853e-01  5.6107977085770666e-01 5.0865265926594427e-01 5.2487710818275934e-01  5.6199584077174691e-01 5.0675910646778766e-01 5.2891163904616900e-01  5.6366869786341223e-01 5.0264487170657590e-01 5.3672493639815522e-01  5.6462920131025218e-01 4.9984875904684301e-01 5.4150997498328279e-01  5.6560766328522993e-01 4.9668363959013417e-01 5.4660397664587168e-01  5.6658343273229561e-01 4.9317486332779137e-01 5.5192800852728863e-01  5.6753907361264400e-01 4.8936205573585706e-01 5.5740434325796295e-01  5.6846069373775965e-01 4.8526981707549594e-01 5.6297640895204326e-01  5.6933988598013696e-01 4.8091694989270983e-01 5.6860741468407661e-01  5.7016824686178158e-01 4.7632881307883207e-01 5.7425638059177408e-01  5.7093834576054059e-01 4.7153457917230912e-01 5.7988253796141143e-01  5.7164630509302683e-01 4.6655122409246530e-01 5.8546305634725249e-01  5.7228869119192449e-01 4.6140439981653869e-01 5.9097033883714145e-01  5.7286241401663773e-01 4.5612210046518875e-01 5.9637601033607368e-01  5.7336748579610775e-01 4.5071185205007253e-01 6.0167394526259221e-01  5.7379840043702068e-01 4.4520702156913761e-01 6.0682501841533842e-01  5.7416106220006036e-01 4.3960089327486451e-01 6.1184892053907380e-01  5.7467270757928191e-01 4.2847222499634668e-01 6.2121032745605709e-01  5.7482519455784886e-01 4.2313112087406080e-01 6.2542742963138320e-01  5.7492222692496286e-01 4.1780777321820234e-01 6.2946553652413573e-01  5.7496337194429303e-01 4.1247565287337040e-01 6.3334002043037829e-01  5.7495329768585879e-01 4.0711354455602705e-01 6.3707660830413404e-01  5.7489211192581202e-01 4.0163023011964333e-01 6.4073616089731655e-01  5.7477300784735830e-01 3.9579071725674903e-01 6.4445701793656085e-01  5.7431826629286997e-01 3.8213273207867920e-01 6.5256348395196651e-01  5.7410729662276505e-01 3.7750917110267701e-01 6.5511307718297074e-01  5.7390746411290416e-01 3.7372968755163744e-01 6.5710601955386394e-01  5.7371471282599562e-01 3.7049435636683897e-01 6.5874222982952679e-01  5.7352891595522582e-01 3.6767023824095918e-01 6.6011585933700612e-01  5.7335201899572652e-01 3.6520194784953453e-01 6.6127265409531089e-01  5.7318728175201539e-01 3.6306755468454949e-01 6.6223846453034618e-01  5.7304105294440644e-01 3.6128975786517947e-01 6.6301721125999302e-01  5.7284059266896059e-01 3.5905087600186897e-01 6.6395359781760310e-01  5.7270002583402446e-01 3.5759115783557432e-01 6.6453695468075757e-01  5.7252511991701804e-01 3.5584127115018999e-01 6.6521691483360990e-01  5.7204317245118508e-01 3.5126437967034679e-01 6.6691538387481597e-01  5.7183818910617135e-01 3.4940762688086902e-01 6.6757234277907052e-01  5.7165207881777913e-01 3.4776783366072755e-01 6.6813520580525754e-01  5.7147700539514568e-01 3.4626148147090030e-01 6.6863818661653340e-01  5.7130999832767371e-01 3.4485461241559401e-01 6.6909589165037275e-01  5.7114717308790075e-01 3.4350797428628915e-01 6.6952348655131544e-01  5.7098413680525639e-01 3.4218110810396868e-01 6.6993529485409964e-01  5.7062394040461561e-01 3.3930646071192055e-01 6.7080009493011172e-01  5.7050846615316053e-01 3.3839942626326713e-01 6.7106538980792274e-01  5.7041720131904750e-01 3.3768804087415111e-01 6.7127056317456657e-01  5.7034209788832424e-01 3.3710627696771994e-01 6.7143646098068799e-01  5.7027924416079367e-01 3.3662188448485619e-01 6.7157332681616611e-01  5.7022628280244692e-01 3.3621544148435190e-01 6.7168730685648315e-01  5.7018173986108656e-01 3.3587480105178197e-01 6.7178223696904149e-01  5.7014454751361709e-01 3.3559120836808182e-01 6.7186085444647259e-01  5.7011376705610795e-01 3.3535707147829208e-01 6.7192548084429715e-01  5.7008878854452505e-01 3.3516745414511495e-01 6.7197762699020092e-01  5.7006903252499730e-01 3.3501772831206461e-01 6.7201868015671085e-01  5.7005415984782515e-01 3.3490517382790835e-01 6.7204946257369691e-01  5.7004385235996924e-01 3.3482726543270946e-01 6.7207072408761515e-01  5.7003781899926653e-01 3.3478170530747248e-01 6.7208313826597332e-01  5.7003592675418413e-01 3.3476701647056795e-01 6.7208728893139091e-01  5.7003561046318729e-01 3.3476322909200384e-01 6.7208883986074219e-01  5.7003484799274640e-01 3.3475507263451254e-01 6.7209194473331257e-01  5.7003376250736515e-01 3.3474345020986745e-01 6.7209635718210536e-01  5.7003215669725305e-01 3.3472675546020070e-01 6.7210253966038846e-01  5.7002926399343978e-01 3.3469412545866156e-01 6.7211515144606204e-01  5.7002288549207336e-01 3.3464941643532142e-01 6.7212616129894109e-01  5.7001777945525944e-01 3.3461241348905107e-01 6.7213571417888318e-01  5.7001411012234060e-01 3.3458563051645318e-01 6.7214269663749349e-01  5.7001182760644076e-01 3.3456893955263600e-01 6.7214705881945391e-01  5.7001204594915544e-01 3.3457053621201843e-01 6.7214664152556147e-01  5.7001511296967167e-01 3.3459298465529907e-01 6.7214076733249928e-01  5.7002019744093058e-01 3.3463038237046250e-01 6.7213091721838913e-01  5.7004998745271684e-01 3.3482979530631535e-01 6.7208498773115477e-01  5.7006246987767561e-01 3.3491237188222001e-01 6.7206607317608358e-01  5.7007842380864882e-01 3.3502100006736385e-01 6.7203991226282567e-01  5.7009910497445904e-01 3.3516505180341327e-01 6.7200393194640062e-01  5.7012572485467050e-01 3.3535381671941250e-01 6.7195546388599292e-01  5.7015933262711660e-01 3.3559552984475793e-01 6.7189204900041744e-01  5.7020152032430438e-01 3.3590265044213963e-01 6.7180995341090555e-01  5.7025468948854030e-01 3.3629391261591834e-01 6.7170355333933729e-01  5.7032343971178978e-01 3.3680493602746192e-01 6.7156224473907122e-01  5.7054170818270811e-01 3.3845231236702034e-01 6.7109432260256408e-01  5.7064426556934655e-01 3.3923715488228517e-01 6.7086581724131544e-01  5.7074474133506004e-01 3.4001265418451604e-01 6.7063659434549672e-01  5.7084485698456311e-01 3.4079187579606840e-01 6.7040290246328826e-01  5.7094496550387019e-01 3.4157733565717863e-01 6.7016408514774040e-01  5.7104470968863130e-01 3.4236621719224403e-01 6.6992100205826610e-01  5.7114343374227161e-01 3.4315319646575926e-01 6.6967536005780692e-01  5.7124026275072270e-01 3.4393107557285962e-01 6.6942952327871330e-01  5.7133410191742939e-01 3.4469067824915611e-01 6.6918660047787137e-01  5.7142337112478836e-01 3.4541870263334939e-01 6.6895112842159199e-01  5.7150603174441095e-01 3.4609773330025545e-01 6.6872917982407776e-01  5.7157862106665325e-01 3.4669819852207850e-01 6.6853102554885135e-01  5.7168262346734244e-01 3.4756840509399189e-01 6.6823979344565942e-01  5.7175724499464209e-01 3.4819999267830459e-01 6.6802539839191155e-01  5.7184711213186146e-01 3.4896550415622524e-01 6.6776306246862771e-01  5.7195662122949609e-01 3.4990388357740615e-01 6.6743818742720351e-01  5.7219825058524565e-01 3.5197827103238283e-01 6.6671302215619899e-01  5.7222137728760836e-01 3.5217393311976869e-01 6.6664481033655476e-01  5.7222916255341094e-01 3.5223886648865610e-01 6.6662230593336091e-01  5.7222931780767805e-01 3.5224015914037005e-01 6.6662185751845937e-01  5.7222539132219463e-01 3.5220835396715611e-01 6.6663269260827251e-01  5.7222505895658415e-01 3.5220898686737323e-01 6.6663171643211472e-01  5.7223828382983000e-01 3.5232809475596871e-01 6.6658842363708670e-01  5.7231090565962051e-01 3.5296732577757639e-01 6.6635861218760151e-01  5.7234271325431496e-01 3.5324464763655028e-01 6.6625916190187928e-01  5.7236496673102177e-01 3.5343677675212209e-01 6.6619053656262306e-01  5.7237831408350270e-01 3.5355111650871512e-01 6.6614983167484010e-01  5.7238263526236088e-01 3.5358808256622631e-01 6.6613667417386946e-01  5.7237965611930997e-01 3.5356297458990371e-01 6.6614553313632952e-01  5.7237123052502337e-01 3.5349206160658947e-01 6.6617052188815162e-01  5.7235954952355483e-01 3.5339601404864551e-01 6.6620385266536775e-01  5.7240365008064109e-01 3.5382235316573418e-01 6.6604151643672516e-01  5.7245359753774883e-01 3.5427922693552061e-01 6.6587210772700889e-01  5.7249851704589205e-01 3.5469048885707011e-01 6.6571910204424367e-01  5.7253682480079249e-01 3.5504246494141684e-01 6.6558758261243578e-01  5.7256624468517736e-01 3.5531395878896077e-01 6.6548569931839141e-01  5.7259490740085683e-01 3.5558271201551345e-01 6.6538378496602080e-01  5.7261549580622684e-01 3.5578015940501229e-01 6.6530788971906984e-01  5.7264129131