<?xml version="1.0"?>
<VTKFile type="UnstructuredGrid"  version="0.1"  >
<UnstructuredGrid>
<Piece  NumberOfPoints="7288" NumberOfCells="14083">
<Points>
<DataArray  type="Float64"  NumberOfComponents="3"  format="ascii">239.8 188 0  250.2 180 0  258.2 172.4 0  257 169.4 0  259.9 157.4 0  258.7 150.3 0  261 143.5 0  251.7 144.4 0  250 138.7 0  247 138.1 0  245.2 130.8 0  247.3 126.4 0  242.7 118.6 0  231.2 107.7 0  226 102.4 0  226.5 93.90000000000001 0  224.5 91.19999999999999 0  224.5 84.09999999999999 0  234.5 73.80000000000001 0  228.4 68.90000000000001 0  230 70 0  233.4 68 0  222.7 61.5 0  220.6 45.5 0  223.4 49.40000000000001 0  224 47 0  221.8 43.09999999999999 0  221 38.40000000000001 0  219.5 38.5 0  219.4 41.69999999999999 0  217.1 36.90000000000001 0  209.7 36 0  209.5 31.69999999999999 0  205.1 29.90000000000001 0  201.5 30.40000000000001 0  199.2 38.69999999999999 0  201.8 41.40000000000001 0  194.8 53.80000000000001 0  196.1 57.69999999999999 0  193 59 0  191.4 66.09999999999999 0  193.5 66.5 0  194.1 64.40000000000001 0  195.6 64.69999999999999 0  195.4 72.40000000000001 0  199.5 77.30000000000001 0  197.7 86.90000000000001 0  200.6 87.5 0  201.5 91 0  198 94.80000000000001 0  198.6 100 0  197.3 105.4 0  198 109.5 0  197 112.7 0  198.3 116.1 0  201.3 122 0  207.2 121 0  208.1 126.7 0  205.6 127.9 0  209.1 134.9 0  210.9 144.4 0  210.1 147.9 0  213 148.4 0  215.4 149.3 0  215.1 152.8 0  219.9 159.7 0  220.3 163.2 0  218.7 164.9 0  219.9 166.7 0  221.9 169.7 0  220 170.3 0  224.9 174.7 0  229.8 177.4 0  229.7 181 0  228 172.9 0  239 178 0  240.4 180 0  239 181.5 0  241.2 185.9 0  242.95 187.99 0  240.5875 187.9975 0  241.375 187.995 0  242.1625 187.9925 0  243.6090909090879 187.2636363636397 0  244.2681818181765 186.5372727272785 0  244.9272727272692 185.810909090913 0  245.5863636363531 185.0845454545571 0  246.245454545445 184.3581818181923 0  246.9045454545351 183.6318181818295 0  247.5636363636303 182.9054545454612 0  248.2227272727197 182.1790909090992 0  248.8818181818179 181.4527272727275 0  249.5409090909066 180.7263636363664 0  250.8666666666961 179.3666666666387 0  251.5333333334033 178.7333333332668 0  252.2000000000994 178.0999999999055 0  252.8666666668011 177.466666666539 0  253.5333333335083 176.8333333331671 0  254.2000000002044 176.1999999998058 0  254.8666666669005 175.5666666664445 0  255.5333333336077 174.9333333330727 0  256.2000000002685 174.2999999997449 0  256.8666666668457 173.6666666664966 0  257.5333333334283 173.033333333243 0  257.9000000000077 171.6500000000191 0  257.6000000000015 170.9000000000038 0  257.2999999999954 170.1499999999885 0  257.2230769230778 168.4769230769195 0  257.4461538461543 167.5538461538442 0  257.6692307692309 166.6307692307688 0  257.8923076923074 165.7076923076935 0  258.115384615384 164.7846153846181 0  258.3384615384605 163.8615384615427 0  258.5615384615395 162.9384615384572 0  258.784615384616 162.0153846153819 0  259.0076923076926 161.0923076923065 0  259.2307692307691 160.1692307692311 0  259.4538461538457 159.2461538461558 0  259.6769230769222 158.3230769230804 0  259.750000000001 156.512500000006 0  259.6000000000014 155.6250000000082 0  259.4500000000029 154.7375000000176 0  259.3000000000018 153.8500000000108 0  259.1500000000007 152.962500000004 0  259.0000000000004 152.0750000000026 0  258.849999999999 151.187499999994 0  258.9875000000052 149.4499999999846 0  259.275000000002 148.5999999999941 0  259.5624999999954 147.7500000000135 0  259.849999999995 146.900000000015 0  260.1374999999945 146.0500000000164 0  260.4249999999913 145.2000000000259 0  260.7124999999948 144.3500000000154 0  260.0700000000398 143.5899999999961 0  259.1400000000573 143.6799999999944 0  258.2100000000351 143.7699999999966 0  257.2800000000262 143.8599999999975 0  256.350000000011 143.9499999999989 0  255.4199999999881 144.0400000000011 0  254.4899999999726 144.1300000000026 0  253.5599999999944 144.2200000000005 0  252.6300000000009 144.3099999999999 0  251.4166666666658 143.4499999999971 0  251.1333333333388 142.5000000000182 0  250.8500000000015 141.5500000000051 0  250.5666666666612 140.5999999999818 0  250.2833333333342 139.6500000000029 0  249.2500000000005 138.5500000000001 0  248.5000000000011 138.4000000000002 0  247.7499999999995 138.2499999999999 0  246.7750000000005 137.1875000000023 0  246.5500000000021 136.2750000000085 0  246.3250000000036 135.3625000000147 0  246.1000000000042 134.450000000017 0  245.8750000000022 133.5375000000088 0  245.650000000003 132.6250000000124 0  245.4250000000046 131.7125000000187 0  245.619999999996 129.9200000000084 0  246.0399999999992 129.0400000000017 0  246.4599999999987 128.1600000000028 0  246.8800000000001 127.2799999999997 0  246.8399999999988 125.6199999999979 0  246.3799999999984 124.8399999999973 0  245.9199999999991 124.0599999999985 0  245.4600000000036 123.2800000000062 0  245.0000000000049 122.5000000000082 0  244.5400000000036 121.7200000000062 0  244.0800000000033 120.9400000000056 0  243.6200000000016 120.1600000000027 0  243.1600000000012 119.3800000000021 0  241.9812499999996 117.9187499999997 0  241.2625000000007 117.2375000000007 0  240.5437500000017 116.5562500000017 0  239.8250000000041 115.875000000004 0  239.1062500000066 115.1937500000063 0  238.3875000000076 114.5125000000072 0  237.6687500000087 113.8312500000082 0  236.9500000000083 113.1500000000079 0  236.231250000008 112.4687500000076 0  235.512500000009 111.7875000000085 0  234.7937500000045 111.1062500000043 0  234.0750000000042 110.4250000000039 0  233.3562500000066 109.7437500000062 0  232.6375000000021 109.062500000002 0  231.9187500000031 108.381250000003 0  230.5500000000004 107.0375000000004 0  229.9000000000021 106.3750000000021 0  229.2500000000038 105.7125000000039 0  228.6000000000041 105.0500000000042 0  227.9500000000018 104.3875000000018 0  227.2999999999952 103.7249999999951 0  226.6500000000024 103.0625000000024 0  226.0555555555555 101.4555555555556 0  226.1111111111111 100.5111111111111 0  226.1666666666667 99.56666666666668 0  226.2222222222222 98.62222222222223 0  226.2777777777778 97.67777777777778 0  226.3333333333333 96.73333333333335 0  226.3888888888889 95.78888888888889 0  226.4444444444445 94.84444444444446 0  226 93.22499999999999 0  225.5000000000026 92.55000000000358 0  225.0000000000026 91.87500000000358 0  224.5 90.31250000000068 0  224.5 89.4250000000097 0  224.5 88.53750000001317 0  224.5 87.65000000001388 0  224.5 86.76250000001457 0  224.5 85.87500000001248 0  224.5 84.9874999999993 0  225.1666666666659 83.41333333333409 0  225.8333333333319 82.72666666666818 0  226.4999999999978 82.04000000000228 0  227.1666666666649 81.35333333333514 0  227.8333333333301 80.66666666667 0  228.4999999999942 79.980000000006 0  229.1666666666601 79.2933333333401 0  229.8333333333316 78.60666666666847 0  230.4999999999975 77.92000000000257 0  231.1666666666644 77.23333333333572 0  231.8333333333295 76.54666666667057 0  232.4999999999972 75.86000000000287 0  233.1666666666681 75.17333333333181 0  233.8333333333368 74.48666666666306 0  233.7499999999995 73.16666666666629 0  233.0000000000018 72.53333333333488 0  232.2500000000014 71.90000000000116 0  231.5000000000009 71.26666666666743 0  230.7500000000005 70.63333333333372 0  229.233333333333 68.75000000000006 0  230.0666666666665 68.60000000000004 0  230.8999999999995 68.45000000000009 0  231.7333333333325 68.30000000000015 0  232.566666666667 68.14999999999995 0  232.5499999999897 68.50000000000607 0  231.7 69 0  230.8500000000103 69.49999999999393 0  227.8300000000008 68.16000000000106 0  227.2600000000064 67.42000000000837 0  226.6900000000077 66.68000000001001 0  226.1200000000024 65.94000000000314 0  225.5500000000108 65.20000000001409 0  224.9800000000098 64.46000000001268 0  224.4100000000007 63.72000000000098 0  223.8399999999971 62.97999999999621 0  223.2699999999993 62.23999999999915 0  222.753846153846 60.56923076923239 0  222.8076923076921 59.63846153846478 0  222.8615384615381 58.70769230769827 0  222.9153846153842 57.77692307693071 0  222.9692307692302 56.84615384616315 0  223.0230769230761 55.91538461539836 0  223.0769230769224 54.98461538462665 0  223.1307692307688 54.05384615385345 0  223.184615384615 53.12307692308312 0  223.2384615384611 52.19230769231556 0  223.2923076923071 51.26153846154906 0  223.3461538461533 50.33076923077847 0  222.8400000000024 48.62000000000327 0  222.2800000000047 47.84000000000661 0  221.7200000000005 47.06000000000071 0  221.1600000000003 46.28000000000039 0  221.4500000000116 45.87500000000512 0  222.3 46.25 0  223.1499999999884 46.62499999999488 0  223.5600000000055 46.22000000000981 0  223.1199999999987 45.43999999999767 0  222.6800000000061 44.66000000001075 0  222.2399999999969 43.8799999999944 0  221.6400000000004 42.16000000000253 0  221.4800000000009 41.22000000000548 0  221.3200000000014 40.28000000000801 0  221.1600000000009 39.34000000000556 0  220.25 38.45 0  219.4749999999999 39.30000000000165 0  219.45 40.09999999999999 0  219.425 40.90000000000112 0  219.0166666666641 40.89999999999463 0  218.6333333333375 40.10000000000875 0  218.2500000000016 39.30000000000339 0  217.8666666666635 38.49999999999351 0  217.483333333337 37.70000000000762 0  216.1750000000165 36.78750000000201 0  215.2500000000275 36.67500000000335 0  214.3250000000385 36.56250000000469 0  213.4000000000277 36.45000000000337 0  212.4750000000059 36.33750000000072 0  211.5499999999838 36.22499999999803 0  210.6249999999835 36.11249999999799 0  209.6600000000001 35.14000000000318 0  209.6200000000001 34.28000000000268 0  209.5800000000001 33.42000000000284 0  209.5399999999998 32.55999999999681 0  208.6200000000117 31.34000000000476 0  207.7400000000138 30.98000000000564 0  206.8600000000162 30.62000000000662 0  205.9800000000174 30.26000000000711 0  204.2000000000054 30.02499999999925 0  203.2999999999946 30.15000000000076 0  202.3999999999945 30.27500000000076 0  201.2444444444438 31.32222222222468 0  200.9888888888895 32.24444444
[...]
<PointData  Vectors="f_12"> 
<DataArray  type="Float64"  Name="f_12"  NumberOfComponents="3" format="ascii">5.1598145496581904e-01 6.3079332666776933e-01 1.9355817453309476e-01  5.1784504379334639e-01 6.3842382908431017e-01 1.9560560213793229e-01  5.2000869625652923e-01 6.4699439941889891e-01 1.9801236272803108e-01  5.2092164536589414e-01 6.5047572951139454e-01 1.9906833894099399e-01  5.2668959009584004e-01 6.7137170629830834e-01 2.0577906108318025e-01  5.2998724799710328e-01 6.8233248239501376e-01 2.0975076470535922e-01  5.3102425642087725e-01 6.8570865670518000e-01 2.1095803685861961e-01  5.3498955615460098e-01 6.9725699077305825e-01 2.1628741475786162e-01  5.4045699421323079e-01 7.1210156669474522e-01 2.2353841929198023e-01  5.4302693046991535e-01 7.1836184909228895e-01 2.2708301860424460e-01  5.5153839097996893e-01 7.3692146951270976e-01 2.3901778704464360e-01  5.5409093523234743e-01 7.4180193616131818e-01 2.4267572726447584e-01  5.5744841774489540e-01 7.4746672106520207e-01 2.4781299264467441e-01  5.6547540976454025e-01 7.5848411562893037e-01 2.6092043644677365e-01  5.7023737918707673e-01 7.6351881204434580e-01 2.6915273041906718e-01  5.7408030840444058e-01 7.6689169135747104e-01 2.7598478036418156e-01  5.7508479566717086e-01 7.6763762736056518e-01 2.7783222972790800e-01  5.7739747213334103e-01 7.6919203801642311e-01 2.8215104950853304e-01  5.7875460405807655e-01 7.6999418310595780e-01 2.8472992781430745e-01  5.7862453519496859e-01 7.6992951579429036e-01 2.8447193223408018e-01  5.7868970228012240e-01 7.6996272262621157e-01 2.8460039809214949e-01  5.7873610084821892e-01 7.6998775567976219e-01 2.8469029255885836e-01  5.7780846885708848e-01 7.6949637126446446e-01 2.8287193427822011e-01  5.7601058312655273e-01 7.6843555787584472e-01 2.7939341449900928e-01  5.7649156022198877e-01 7.6873428101436880e-01 2.8031758501007337e-01  5.7591530029873761e-01 7.6837648616319365e-01 2.7920965254427582e-01  5.7587040509934284e-01 7.6834744290726242e-01 2.7912414668893459e-01  5.7577176800251806e-01 7.6828517613711922e-01 2.7893441052656504e-01  5.7577178479184588e-01 7.6828517974518651e-01 2.7893445112057341e-01  5.7578521557424656e-01 7.6829266099145699e-01 2.7896142416115965e-01  5.7552337616273708e-01 7.6812195930450133e-01 2.7846260722537125e-01  5.7515384856343044e-01 7.6787397001405144e-01 2.7776257648873848e-01  5.7490651325005271e-01 7.6770657374194984e-01 2.7729343231366022e-01  5.7484590837657978e-01 7.6766524919519674e-01 2.7717844370481443e-01  5.7484081922453290e-01 7.6766176740868408e-01 2.7716879094645541e-01  5.7508039291797897e-01 7.6782393865794552e-01 2.7762404120768741e-01  5.7540478789375005e-01 7.6803946063219419e-01 2.7824144113279314e-01  5.7681035649583468e-01 7.6893173668900117e-01 2.8092661262640684e-01  5.7715780347928936e-01 7.6913717834552786e-01 2.8159722816406435e-01  5.7734761357473929e-01 7.6924841197500915e-01 2.8196353786739048e-01  5.7777053013381896e-01 7.6948551863971126e-01 2.8278683447147879e-01  5.7775544732332418e-01 7.6947692029719850e-01 2.8275769751100960e-01  5.7751617850804904e-01 7.6934389943371895e-01 2.8229121397047119e-01  5.7759551348191429e-01 7.6938793424607210e-01 2.8244607003716893e-01  5.7782490224333904e-01 7.6951120792369399e-01 2.8289737486374805e-01  5.7770066303316092e-01 7.6942259854676642e-01 2.8267624696195759e-01  5.7698975428482646e-01 7.6897230641155256e-01 2.8134331086852143e-01  5.7668810233303869e-01 7.6877269913071167e-01 2.8078136102147866e-01  5.7549116573652448e-01 7.6796026320384780e-01 2.7854816798540960e-01  5.7430824670635749e-01 7.6711819994402353e-01 2.7634372033914462e-01  5.7320327959228645e-01 7.6625875240264651e-01 2.7431910722805219e-01  5.7180313622348522e-01 7.6509909405816379e-01 2.7177660891122907e-01  5.7075679564512349e-01 7.6416906664752515e-01 2.6990051310450297e-01  5.7005942501974560e-01 7.6352591504090239e-01 2.6865681713340150e-01  5.6943909424013817e-01 7.6292407157087361e-01 2.6756696593975215e-01  5.6837948597407595e-01 7.6183810855990219e-01 2.6574012835500049e-01  5.6610141308087580e-01 7.5920178722186571e-01 2.6197721672821644e-01  5.6088789159202102e-01 7.5253833231416056e-01 2.5336117560914179e-01  5.5997459876744449e-01 7.5128260195763286e-01 2.5185053753193526e-01  5.5650135078162422e-01 7.4584453188313071e-01 2.4643016278395222e-01  5.5013452747528291e-01 7.3433231210621552e-01 2.3681973171383214e-01  5.4916701186731143e-01 7.3241266422332951e-01 2.3538901667178641e-01  5.4847356280665838e-01 7.3092422555310854e-01 2.3443660575788919e-01  5.4612812845623404e-01 7.2575375694186584e-01 2.3119016103814405e-01  5.4309727535305441e-01 7.1876768790343715e-01 2.2699609991246256e-01  5.3596650674434698e-01 7.0004269582958734e-01 2.1756941524090412e-01  5.3211059086069312e-01 6.8881831664590432e-01 2.1254023135016017e-01  5.3101764962327347e-01 6.8551706418849800e-01 2.1110923261908282e-01  5.3032917408629299e-01 6.8336588136320453e-01 2.1022939102861116e-01  5.2902073392243376e-01 6.7917794549669852e-01 2.0859153783217102e-01  5.2936626890304528e-01 6.8032031902312118e-01 2.0900388791473354e-01  5.2700188167262896e-01 6.7245892959122355e-01 2.0614095962667756e-01  5.2263653432456447e-01 6.5695347306353857e-01 2.0100761920823085e-01  5.2212070907417729e-01 6.5507546991114718e-01 2.0038200544913012e-01  5.2578028727329273e-01 6.6817528232940193e-01 2.0473483751382537e-01  5.1992536629380814e-01 6.4657893351539752e-01 1.9798574058000246e-01  5.1781622710999209e-01 6.3824166037068453e-01 1.9562209205533876e-01  5.1706279979489445e-01 6.3521340029187645e-01 1.9477461004744559e-01  5.1617214891929997e-01 6.3157927749151155e-01 1.9377096081709191e-01  5.1605723783320490e-01 6.3110692594194184e-01 1.9364202717596829e-01  5.1599114722487083e-01 6.3083339025081042e-01 1.9356894154340948e-01  5.1601211304724692e-01 6.3092011692632610e-01 1.9359218028589520e-01  5.1603609902370251e-01 6.3101941764444791e-01 1.9361868917023042e-01  5.1611063681538738e-01 6.3132762751546290e-01 1.9370111438984963e-01  5.1620627605407765e-01 6.3172261186983192e-01 1.9380686752346710e-01  5.1633010306971550e-01 6.3223350664114797e-01 1.9394358254859612e-01  5.1647558296517493e-01 6.3283295091229175e-01 1.9410391446939318e-01  5.1663908762319943e-01 6.3350559014893970e-01 1.9428379318149419e-01  5.1681577589142924e-01 6.3423115375788008e-01 1.9447777422811713e-01  5.1700544435681428e-01 6.3500824388225841e-01 1.9468577869552781e-01  5.1720424265494791e-01 6.3582075053111120e-01 1.9490357876375208e-01  5.1740899941960194e-01 6.3665533951149267e-01 1.9512774052958157e-01  5.1762229580553498e-01 6.3752192117736173e-01 1.9536139231573263e-01  5.1805383659099102e-01 6.3926647280068827e-01 1.9583468153461137e-01  5.1825678659912910e-01 6.4008268552805725e-01 1.9605767648869407e-01  5.1846017557811386e-01 6.4089755803415682e-01 1.9628170538486550e-01  5.1866402478773477e-01 6.4171114517832506e-01 1.9650683769832994e-01  5.1886695914239145e-01 6.4251792003558195e-01 1.9673157938255517e-01  5.1906739749565234e-01 6.4331168707439490e-01 1.9695419815193974e-01  5.1926546601968615e-01 6.4409288681309329e-01 1.9717496905054771e-01  5.1945771460820489e-01 6.4484809306826529e-01 1.9739006077411564e-01  5.1963901231566834e-01 6.4555745095800898e-01 1.9759371758915018e-01  5.1980277734978886e-01 6.4619574181554840e-01 1.9777849837079978e-01  5.1993580205094436e-01 6.4671230950737291e-01 1.9792930415750795e-01  5.2008719946787763e-01 6.4729574108872134e-01 1.9810305202006609e-01  5.2025969669623939e-01 6.4795616928148037e-01 1.9830262142011226e-01  5.2052084475745963e-01 6.4895267920377753e-01 1.9860483592946163e-01  5.2144398090775390e-01 6.5244997705419816e-01 1.9967171596754604e-01  5.2191494236869240e-01 6.5421780380940042e-01 2.0021545993912518e-01  5.2237800533484635e-01 6.5594338407435238e-01 2.0075010345912025e-01  5.2284080894819940e-01 6.5765523304277773e-01 2.0128478833722344e-01  5.2330413805551712e-01 6.5935602678657457e-01 2.0182070862188764e-01  5.2376681432937022e-01 6.6104129479281337e-01 2.0235674551994509e-01  5.2422664358339843e-01 6.6270302544739779e-01 2.0289055646662166e-01  5.2468128925506119e-01 6.6433309827395981e-01 2.0341960135208154e-01  5.2512688110914207e-01 6.6591789383936228e-01 2.0393952879461130e-01  5.2556156784705299e-01 6.6745141337843406e-01 2.0444844264991280e-01  5.2597756539825180e-01 6.6890746870396411e-01 2.0493720977973343e-01  5.2636594449561758e-01 6.7025624255207850e-01 2.0539543352460837e-01  5.2700522619305390e-01 6.7244981461005515e-01 2.0615582613939668e-01  5.2738228897299910e-01 6.7372843371258206e-01 2.0660775334184911e-01  5.2779017332749090e-01 6.7510136604642679e-01 2.0709812843829323e-01  5.2821458215267847e-01 6.7651904228251369e-01 2.0760976955383587e-01  5.2864774404628156e-01 6.7795492812749603e-01 2.0813290365664489e-01  5.2908388283328167e-01 6.7939007369258309e-01 2.0866004240759406e-01  5.2952394530412750e-01 6.8082793967472244e-01 2.0919188633492888e-01  5.3035962353972277e-01 6.8354005374716953e-01 2.1019522569225083e-01  5.3061861311311431e-01 6.8437783926640350e-01 2.1050221218934945e-01  5.3079331869908641e-01 6.8494430238324511e-01 2.1070600213719068e-01  5.3091110869124902e-01 6.8532782548075888e-01 2.1084089518713897e-01  5.3098076402216765e-01 6.8555721503289302e-01 2.1091783804435515e-01  5.3101466332127978e-01 6.8567163422990252e-01 2.1095256255463679e-01  5.3102456655645136e-01 6.8570786443293019e-01 2.1096006907795473e-01  5.3103410037564991e-01 6.8573716122125128e-01 2.1097247241218525e-01  5.3107735911628773e-01 6.8586467263694861e-01 2.1103373180063234e-01  5.3116971142719471e-01 6.8613913732901233e-01 2.1116206467755624e-01  5.3132177687766668e-01 6.8659200905301454e-01 2.1137148413768556e-01  5.3154917020373238e-01 6.8726908681533394e-01 2.1168236360852272e-01  5.3186607348251702e-01 6.8821028076674895e-01 2.1211308661423500e-01  5.3229002862031560e-01 6.8946283428391952e-01 2.1268639621744220e-01  5.3285314832834796e-01 6.9111375432217603e-01 2.1344366580545868e-01  5.3363851250577155e-01 6.9339171315388892e-01 2.1449307427190281e-01  5.3658202962284818e-01 7.0173178919781209e-01 2.1839355091483659e-01  5.3770302228274647e-01 7.0481838018209408e-01 2.1987440850761872e-01  5.3865536026964411e-01 7.0738823400351281e-01 2.2113385784737893e-01  5.3945452766970892e-01 7.0950517779048139e-01 2.2219481142258635e-01  5.4008627048241076e-01 7.1115147793296052e-01 2.2303858705229052e-01  5.4068402470038346e-01 7.1266929816028146e-01 2.2384939271054685e-01  5.4116456480334740e-01 7.1385871611718021e-01 2.2451019650528783e-01  5.4188079506588949e-01 7.1560699148351281e-01 2.2549832744083528e-01  5.4457160654881553e-01 7.2199615349584423e-01 2.2922569153781333e-01  5.4573923288931359e-01 7.2467284081620353e-01 2.3085083476862575e-01  5.4678056726095048e-01 7.2700107487193100e-01 2.3230437760718081e-01  5.4775346004088044e-01 7.2912484711515158e-01 2.3366667198123578e-01  5.4868305939428164e-01 7.3110703401047117e-01 2.3497309573566996e-01  5.4958976196560483e-01 7.3299688595957690e-01 2.3625225988569523e-01  5.5050396583508954e-01 7.3486006792523062e-01 2.3754703084158926e-01  5.5245615076188570e-01 7.3871416202132512e-01 2.4032671094626137e-01  5.5308218376775609e-01 7.3991526667936003e-01 2.4122199597052849e-01  5.5355408535168527e-01 7.4080649721129732e-01 2.4189924578438154e-01  5.5389848066799341e-01 7.4144803894264377e-01 2.4239601157931284e-01  5.5425529565852538e-01 7.4209717985759527e-01 2.4291909855257626e-01  5.5452031413572911e-01 7.4256721129084091e-01 2.4331514576422347e-01  5.5483965652365508e-01 7.4312668131595672e-01 2.4379589004038396e-01  5.5519553854609782e-01 7.4374243208370250e-01 2.4433504812792814e-01  5.5557038927902769e-01 7.4438251385011223e-01 2.4490648618071373e-01  5.5595733125221536e-01 7.4503454920753431e-01 2.4549957400346975e-01  5.5634921003764892e-01 7.4568615679743655e-01 2.4610326529080048e-01  5.5673775803456804e-01 7.4632354184433414e-01 2.4670487386155485e-01  5.5711298188901626e-01 7.4693090391664718e-01 2.4728863662216352e-01  5.5782230921554410e-01 7.4805460758971765e-01 2.4840097725010693e-01  5.5824860019555667e-01 7.4871477888493054e-01 2.4907477422359070e-01  5.5869923266414256e-01 7.4940205390604131e-01 2.4979046960565557e-01  5.5916912622619963e-01 7.5010713773123661e-01 2.5054020059179627e-01  5.5965308627785115e-01 7.5082148940484095e-01 2.5131580716075008e-01  5.6014782429270793e-01 7.5153930156953297e-01 2.5211225718869684e-01  5.6065224635702138e-01 7.5225828266536998e-01 2.5292792936869518e-01  5.6116465050078468e-01 7.5297540299402621e-01 2.5376027007307056e-01  5.6168301348291516e-01 7.5368738958849346e-01 2.5460618537373320e-01  5.6220765822389551e-01 7.5439410583360389e-01 2.5546641116184599e-01  5.6273780332075585e-01 7.5509417878972640e-01 2.5633984020858314e-01  5.6327223528633086e-01 7.5578570774412346e-01 2.5722466880252221e-01  5.6381318946499914e-01 7.5647100776841336e-01 2.5812484472878555e-01  5.6435776482481248e-01 7.5714564267655449e-01 2.5903587717883497e-01  5.6491071529893022e-01 7.5781547274387950e-01 2.5996578781939800e-01  5.6601064687979163e-01 7.5910334053267892e-01 2.6183004050535680e-01  5.6654399722679905e-01 7.5970628347860103e-01 2.6274102314209391e-01  5.6708131713880794e-01 7.6030005884383112e-01 2.6366313356341320e-01  5.6762865785166816e-01 7.6089003316396575e-01 2.6460701433319589e-01  5.6818923871103799e-01 7.6147982816595194e-01 2.6557774316436633e-01  5.6877681739713948e-01 7.6208258816568597e-01 2.6659917569666580e-01  5.6942282922336929e-01 7.6272758353292913e-01 2.6772635594010630e-01  5.7103415396510426e-01 7.6427045260710291e-01 2.7055394357726809e-01  5.7162008351636950e-01 7.6480823812213061e-01 2.7158784287193588e-01  5.7211783056849319e-01 7.6525346235746017e-01 2.7246888235489120e-01  5.7255863015585451e-01 7.6563830790187948e-01 2.7325172925370428e-01  5.7295491409467925e-01 7.6597645651531632e-01 2.7395814957850506e-01  5.7331056782860490e-01 7.6627326009354968e-01 2.7459483988193245e-01  5.7362520723973753e-01 7.6653026457075424e-01 2.7516072365578975e-01  5.7389197350045140e-01 7.6674379027923256e-01 2.7564281081222058e-01  5.7423159669182744e-01 7.6700755090669037e-01 2.7626122672056930e-01  5.7445523732777148e-01 7.6717612499986410e-01 2.7667136241417362e-01  5.7472769319207107e-01 7.6737790822447249e-01 2.7717282102212004e-01  5.7547091379388504e-01 7.6791309668300323e-01 2.7854748580662431e-01  5.7578647569805030e-01 7.6813384350766656e-01 2.7913374514543732e-01  5.7607192942514718e-01 7.6832974048040825e-01 2.7966543494706148e-01  5.7633971351754820e-01 7.6851021699713029e-01 2.8016536080067306e-01  5.7659583709367335e-01 7.6867976562514961e-01 2.8064461685473424e-01  5.7684534108599317e-01 7.6884212356648896e-01 2.8111241128454428e-01  5.7709770059451548e-01 7.6900356439441242e-01 2.8158655723805853e-01  5.7767793647720544e-01 7.6936519105097456e-01 2.8268062609776268e-01  5.7787409210758756e-01 7.6948434668938603e-01 2.8305180419816972e-01  5.7803302324240724e-01 7.6957954076465906e-01 2.8335308037623935e-01  5.7816681104181100e-01 7.6965867332566884e-01 2.8360712127971444e-01  5.7828114710576028e-01 7.6972554314390507e-01 2.8382458456139881e-01  5.7837938326414351e-01 7.6978241944919468e-01 2.8401172792636908e-01  5.7846358491977412e-01 7.6983072451420509e-01 2.8417238902852765e-01  5.7853522141960889e-01 7.6987148066418543e-01 2.8430928335698419e-01  5.7859553182324019e-01 7.6990554463426231e-01 2.8442469283699640e-01  5.7864531338397718e-01 7.6993348142697016e-01 2.8452007490984305e-01  5.7868527696747762e-01 7.6995578848677759e-01 2.8459672763591493e-01  5.7871582966016866e-01 7.6997276405074855e-01 2.8465538579431721e-01  5.7873732391412036e-01 7.6998466190150627e-01 2.8469668613374388e-01  5.7875005343388819e-01 7.6999168958866049e-01 2.8472115969584455e-01  5.7875206283526193e-01 7.6999290029255019e-01 2.8472491334986505e-01  5.7874589521084030e-01 7.6998985151897004e-01 2.8471267260772298e-01  5.7873609992785879e-01 7.6998504449738325e-01 2.8469319245053110e-01  5.7872272907296252e-01 7.6997850126538470e-01 2.8466657710468457e-01  5.7870643564354196e-01 7.6997058804279672e-01 2.8463407232179933e-01  5.7867171815214957e-01 7.6995382267167123e-01 2.8456466893598586e-01  5.7869796841817633e-01 7.6996752434268612e-01 2.8461604952346320e-01  5.7871468554626393e-01 7.6997637440737521e-01 2.8464862481686060e-01  5.7872595817580474e-01 7.6998236366407236e-01 2.8467056186759643e-01  5.7873283924807362e-01 7.6998602219148793e-01 2.8468394768232130e-01  5.7873218211248179e-01 7.6998567288996156e-01 2.8468266936521236e-01  5.7872300620656669e-01 7.6998079084805382e-01 2.8466482270221782e-01  5.7870838266689306e-01 7.6997297762368777e-01 2.8463640996449296e-01  5.7856201445634803e-01 7.6989760162965393e-01 2.8434866765781092e-01  5.7850698627794572e-01 7.6986944212510888e-01 2.8424017453521139e-01  5.7844999457766133e-01 7.6984009203247250e-01 2.8412792006189619e-01  5.7838838340596566e-01 7.6980811407825100e-01 2.8400672802006310e-01  5.7832063807230349e-01 7.6977265358853131e-01 2.8387366127555436e-01  5.7824563175966259e-01 7.6973305048325469e-01 2.8372653749353216e-01  5.7816186909071166e-01 7.6968842973668794e-01 2.8356245443671296e-01  5.7806704279429122e-01 7.6963745598313105e-01 2.8337692499075745e-01  5.7795592808325980e-01 7.6957716690951650e-01 2.8315977564915656e-01  5.7765412377372249e-01 7.6941093241175695e-01 2.8257103158319269e-01  5.7752850561864177e-01 7.6934070240022201e-01 2.8232639939524784e-01  5.7741118989461249e-01 7.6927451012130554e-01 2.8209815213170764e-01  5.7729880836564240e-01 7.6921052943354418e-01 2.8187971423385921e-01  5.7718958560498590e-01 7.6914781672771870e-01 2.8166761482904057e-01  5.7708341844449451e-01 7.6908634968094547e-01 2.8146165008926038e-01  5.7698040603354939e-01 7.6902622865120496e-01 2.8126200272208118e-01  5.7688099857595165e-01 7.6896776072105100e-01 2.8106953393411427e-01  5.7678590432395882e-01 7.6891141286340758e-01 2.8088560086626585e-01  5.7669639897880431e-01 7.6885799697154844e-01 2.8071265320445898e-01  5.7661409989173296e-01 7.6880854840280188e-01 2.8055379199234737e-01  5.7654203740593712e-01 7.6876497530407017e-01 2.8041483143153700e-01  5.7643801518960436e-01 7.6870144800029516e-01 2.8021457922256571e-01  5.7636281566896730e-01 7.6865508017780637e-01 2.8007002719000795e-01  5.7627293400126989e-01 7.6859936284550989e-01 2.7989734463654520e-01  5.7616511818240879e-01 7.6853219301634779e-01 2.7969026327605045e-01  5.7594113293334370e-01 7.6839233976972254e-01 2.7925966981032946e-01  5.7592247878633296e-01 7.6838083418639180e-01 2.7922362277990603e-01  5.7591683595829246e-01 7.6837740629457763e-01 2.7921265404733536e-01  5.7591672561212792e-01 7.6837733941450370e-01 2.7921243923940459e-01  5.7591897290887806e-01 7.6837864628709984e-01 2.7921687170938236e-01  5.7591712936460415e-01 7.6837731755298300e-01 2.7921350135309758e-01  5.7590229156315476e-01 7.6836776605452561e-01 2.7918519783094042e-01  5.7583157744355740e-01 7.6832279038571172e-01 2.7904966721062779e-01  5.7580329499530181e-01 7.6830490513892613e-01 2.7899530112226206e-01  5.7578521081517442e-01 7.6829355147432254e-01 2.7896042510035080e-01  5.7577516187051558e-01 7.6828728549113645e-01 2.7894098580582138e-01  5.7577196931822727e-01 7.6828529754955932e-01 2.7893480491003864e-01  5.7577388678849106e-01 7.6828647202499212e-01 2.7893854022170184e-01  5.7577926790725087e-01 7.6828976283401162e-01 2.7894902603869043e-01  5.7578513248018037e-01 7.6829321524668193e-01 2.7896060044597160e-01  5.7571818165600408e-01 7.6824899273218061e-01 2.7883385336278638e-01  5.7566257938282817e-01 7.6821284611530172e-01 2.7872787558873308e-01  5.7561384412718630e-01 7.6818111630311614e-01 2.7863496728571180e-01  5.7557252222993716e-01 7.6815414876076094e-01 2.7855621096449523e-01  5.7554072736615081e-01 7.6813334563579594e-01 2.7849563870163951e-01  5.7550793503337139e-01 7.6811174164999796e-01 2.7843329033955649e-01  5.7548247242590123e-01 7.6809482390028161e-01 2.7838500409461253e-01  5.7545043288