<?xml version="1.0"?>
<VTKFile type="UnstructuredGrid"  version="0.1"  >
<UnstructuredGrid>
<Piece  NumberOfPoints="7288" NumberOfCells="14083">
<Points>
<DataArray  type="Float64"  NumberOfComponents="3"  format="ascii">239.8 188 0  250.2 180 0  258.2 172.4 0  257 169.4 0  259.9 157.4 0  258.7 150.3 0  261 143.5 0  251.7 144.4 0  250 138.7 0  247 138.1 0  245.2 130.8 0  247.3 126.4 0  242.7 118.6 0  231.2 107.7 0  226 102.4 0  226.5 93.90000000000001 0  224.5 91.19999999999999 0  224.5 84.09999999999999 0  234.5 73.80000000000001 0  228.4 68.90000000000001 0  230 70 0  233.4 68 0  222.7 61.5 0  220.6 45.5 0  223.4 49.40000000000001 0  224 47 0  221.8 43.09999999999999 0  221 38.40000000000001 0  219.5 38.5 0  219.4 41.69999999999999 0  217.1 36.90000000000001 0  209.7 36 0  209.5 31.69999999999999 0  205.1 29.90000000000001 0  201.5 30.40000000000001 0  199.2 38.69999999999999 0  201.8 41.40000000000001 0  194.8 53.80000000000001 0  196.1 57.69999999999999 0  193 59 0  191.4 66.09999999999999 0  193.5 66.5 0  194.1 64.40000000000001 0  195.6 64.69999999999999 0  195.4 72.40000000000001 0  199.5 77.30000000000001 0  197.7 86.90000000000001 0  200.6 87.5 0  201.5 91 0  198 94.80000000000001 0  198.6 100 0  197.3 105.4 0  198 109.5 0  197 112.7 0  198.3 116.1 0  201.3 122 0  207.2 121 0  208.1 126.7 0  205.6 127.9 0  209.1 134.9 0  210.9 144.4 0  210.1 147.9 0  213 148.4 0  215.4 149.3 0  215.1 152.8 0  219.9 159.7 0  220.3 163.2 0  218.7 164.9 0  219.9 166.7 0  221.9 169.7 0  220 170.3 0  224.9 174.7 0  229.8 177.4 0  229.7 181 0  228 172.9 0  239 178 0  240.4 180 0  239 181.5 0  241.2 185.9 0  242.95 187.99 0  240.5875 187.9975 0  241.375 187.995 0  242.1625 187.9925 0  243.6090909090879 187.2636363636397 0  244.2681818181765 186.5372727272785 0  244.9272727272692 185.810909090913 0  245.5863636363531 185.0845454545571 0  246.245454545445 184.3581818181923 0  246.9045454545351 183.6318181818295 0  247.5636363636303 182.9054545454612 0  248.2227272727197 182.1790909090992 0  248.8818181818179 181.4527272727275 0  249.5409090909066 180.7263636363664 0  250.8666666666961 179.3666666666387 0  251.5333333334033 178.7333333332668 0  252.2000000000994 178.0999999999055 0  252.8666666668011 177.466666666539 0  253.5333333335083 176.8333333331671 0  254.2000000002044 176.1999999998058 0  254.8666666669005 175.5666666664445 0  255.5333333336077 174.9333333330727 0  256.2000000002685 174.2999999997449 0  256.8666666668457 173.6666666664966 0  257.5333333334283 173.033333333243 0  257.9000000000077 171.6500000000191 0  257.6000000000015 170.9000000000038 0  257.2999999999954 170.1499999999885 0  257.2230769230778 168.4769230769195 0  257.4461538461543 167.5538461538442 0  257.6692307692309 166.6307692307688 0  257.8923076923074 165.7076923076935 0  258.115384615384 164.7846153846181 0  258.3384615384605 163.8615384615427 0  258.5615384615395 162.9384615384572 0  258.784615384616 162.0153846153819 0  259.0076923076926 161.0923076923065 0  259.2307692307691 160.1692307692311 0  259.4538461538457 159.2461538461558 0  259.6769230769222 158.3230769230804 0  259.750000000001 156.512500000006 0  259.6000000000014 155.6250000000082 0  259.4500000000029 154.7375000000176 0  259.3000000000018 153.8500000000108 0  259.1500000000007 152.962500000004 0  259.0000000000004 152.0750000000026 0  258.849999999999 151.187499999994 0  258.9875000000052 149.4499999999846 0  259.275000000002 148.5999999999941 0  259.5624999999954 147.7500000000135 0  259.849999999995 146.900000000015 0  260.1374999999945 146.0500000000164 0  260.4249999999913 145.2000000000259 0  260.7124999999948 144.3500000000154 0  260.0700000000398 143.5899999999961 0  259.1400000000573 143.6799999999944 0  258.2100000000351 143.7699999999966 0  257.2800000000262 143.8599999999975 0  256.350000000011 143.9499999999989 0  255.4199999999881 144.0400000000011 0  254.4899999999726 144.1300000000026 0  253.5599999999944 144.2200000000005 0  252.6300000000009 144.3099999999999 0  251.4166666666658 143.4499999999971 0  251.1333333333388 142.5000000000182 0  250.8500000000015 141.5500000000051 0  250.5666666666612 140.5999999999818 0  250.2833333333342 139.6500000000029 0  249.2500000000005 138.5500000000001 0  248.5000000000011 138.4000000000002 0  247.7499999999995 138.2499999999999 0  246.7750000000005 137.1875000000023 0  246.5500000000021 136.2750000000085 0  246.3250000000036 135.3625000000147 0  246.1000000000042 134.450000000017 0  245.8750000000022 133.5375000000088 0  245.650000000003 132.6250000000124 0  245.4250000000046 131.7125000000187 0  245.619999999996 129.9200000000084 0  246.0399999999992 129.0400000000017 0  246.4599999999987 128.1600000000028 0  246.8800000000001 127.2799999999997 0  246.8399999999988 125.6199999999979 0  246.3799999999984 124.8399999999973 0  245.9199999999991 124.0599999999985 0  245.4600000000036 123.2800000000062 0  245.0000000000049 122.5000000000082 0  244.5400000000036 121.7200000000062 0  244.0800000000033 120.9400000000056 0  243.6200000000016 120.1600000000027 0  243.1600000000012 119.3800000000021 0  241.9812499999996 117.9187499999997 0  241.2625000000007 117.2375000000007 0  240.5437500000017 116.5562500000017 0  239.8250000000041 115.875000000004 0  239.1062500000066 115.1937500000063 0  238.3875000000076 114.5125000000072 0  237.6687500000087 113.8312500000082 0  236.9500000000083 113.1500000000079 0  236.231250000008 112.4687500000076 0  235.512500000009 111.7875000000085 0  234.7937500000045 111.1062500000043 0  234.0750000000042 110.4250000000039 0  233.3562500000066 109.7437500000062 0  232.6375000000021 109.062500000002 0  231.9187500000031 108.381250000003 0  230.5500000000004 107.0375000000004 0  229.9000000000021 106.3750000000021 0  229.2500000000038 105.7125000000039 0  228.6000000000041 105.0500000000042 0  227.9500000000018 104.3875000000018 0  227.2999999999952 103.7249999999951 0  226.6500000000024 103.0625000000024 0  226.0555555555555 101.4555555555556 0  226.1111111111111 100.5111111111111 0  226.1666666666667 99.56666666666668 0  226.2222222222222 98.62222222222223 0  226.2777777777778 97.67777777777778 0  226.3333333333333 96.73333333333335 0  226.3888888888889 95.78888888888889 0  226.4444444444445 94.84444444444446 0  226 93.22499999999999 0  225.5000000000026 92.55000000000358 0  225.0000000000026 91.87500000000358 0  224.5 90.31250000000068 0  224.5 89.4250000000097 0  224.5 88.53750000001317 0  224.5 87.65000000001388 0  224.5 86.76250000001457 0  224.5 85.87500000001248 0  224.5 84.9874999999993 0  225.1666666666659 83.41333333333409 0  225.8333333333319 82.72666666666818 0  226.4999999999978 82.04000000000228 0  227.1666666666649 81.35333333333514 0  227.8333333333301 80.66666666667 0  228.4999999999942 79.980000000006 0  229.1666666666601 79.2933333333401 0  229.8333333333316 78.60666666666847 0  230.4999999999975 77.92000000000257 0  231.1666666666644 77.23333333333572 0  231.8333333333295 76.54666666667057 0  232.4999999999972 75.86000000000287 0  233.1666666666681 75.17333333333181 0  233.8333333333368 74.48666666666306 0  233.7499999999995 73.16666666666629 0  233.0000000000018 72.53333333333488 0  232.2500000000014 71.90000000000116 0  231.5000000000009 71.26666666666743 0  230.7500000000005 70.63333333333372 0  229.233333333333 68.75000000000006 0  230.0666666666665 68.60000000000004 0  230.8999999999995 68.45000000000009 0  231.7333333333325 68.30000000000015 0  232.566666666667 68.14999999999995 0  232.5499999999897 68.50000000000607 0  231.7 69 0  230.8500000000103 69.49999999999393 0  227.8300000000008 68.16000000000106 0  227.2600000000064 67.42000000000837 0  226.6900000000077 66.68000000001001 0  226.1200000000024 65.94000000000314 0  225.5500000000108 65.20000000001409 0  224.9800000000098 64.46000000001268 0  224.4100000000007 63.72000000000098 0  223.8399999999971 62.97999999999621 0  223.2699999999993 62.23999999999915 0  222.753846153846 60.56923076923239 0  222.8076923076921 59.63846153846478 0  222.8615384615381 58.70769230769827 0  222.9153846153842 57.77692307693071 0  222.9692307692302 56.84615384616315 0  223.0230769230761 55.91538461539836 0  223.0769230769224 54.98461538462665 0  223.1307692307688 54.05384615385345 0  223.184615384615 53.12307692308312 0  223.2384615384611 52.19230769231556 0  223.2923076923071 51.26153846154906 0  223.3461538461533 50.33076923077847 0  222.8400000000024 48.62000000000327 0  222.2800000000047 47.84000000000661 0  221.7200000000005 47.06000000000071 0  221.1600000000003 46.28000000000039 0  221.4500000000116 45.87500000000512 0  222.3 46.25 0  223.1499999999884 46.62499999999488 0  223.5600000000055 46.22000000000981 0  223.1199999999987 45.43999999999767 0  222.6800000000061 44.66000000001075 0  222.2399999999969 43.8799999999944 0  221.6400000000004 42.16000000000253 0  221.4800000000009 41.22000000000548 0  221.3200000000014 40.28000000000801 0  221.1600000000009 39.34000000000556 0  220.25 38.45 0  219.4749999999999 39.30000000000165 0  219.45 40.09999999999999 0  219.425 40.90000000000112 0  219.0166666666641 40.89999999999463 0  218.6333333333375 40.10000000000875 0  218.2500000000016 39.30000000000339 0  217.8666666666635 38.49999999999351 0  217.483333333337 37.70000000000762 0  216.1750000000165 36.78750000000201 0  215.2500000000275 36.67500000000335 0  214.3250000000385 36.56250000000469 0  213.4000000000277 36.45000000000337 0  212.4750000000059 36.33750000000072 0  211.5499999999838 36.22499999999803 0  210.6249999999835 36.11249999999799 0  209.6600000000001 35.14000000000318 0  209.6200000000001 34.28000000000268 0  209.5800000000001 33.42000000000284 0  209.5399999999998 32.55999999999681 0  208.6200000000117 31.34000000000476 0  207.7400000000138 30.98000000000564 0  206.8600000000162 30.62000000000662 0  205.9800000000174 30.26000000000711 0  204.2000000000054 30.02499999999925 0  203.2999999999946 30.15000000000076 0  202.3999999999945 30.27500000000076 0  201.2444444444438 31.32222222222468 0  200.9888888888895 32.24444444
[...]
<PointData  Vectors="f_12"> 
<DataArray  type="Float64"  Name="f_12"  NumberOfComponents="3" format="ascii">5.5536299715150239e-01 2.6301560637005511e-01 6.7207927552149160e-01  5.5397340732867939e-01 2.5787676140131194e-01 6.7057588857918116e-01  5.5229979839727150e-01 2.5190994286088048e-01 6.6852583984789193e-01  5.5149579103757729e-01 2.4918982603910847e-01 6.6742234402905798e-01  5.4600883152707480e-01 2.3175270405426920e-01 6.5853960564518488e-01  5.4237854352680170e-01 2.2146682652033062e-01 6.5132700978410096e-01  5.4127418499282520e-01 2.1836043929531845e-01 6.4899287765936986e-01  5.3577245548844044e-01 2.0582226304321211e-01 6.3541403654712625e-01  5.2820389563906800e-01 1.9026590904812998e-01 6.1402871063951403e-01  5.2455051431165556e-01 1.8411909629187101e-01 6.0217534492759617e-01  5.1257254391348417e-01 1.6780043142284090e-01 5.5829653299495396e-01  5.0909348662140608e-01 1.6437724109287338e-01 5.4398009798957303e-01  5.0466573021024952e-01 1.6195938770194143e-01 5.2425716076100370e-01  4.9550675516154441e-01 1.6395350152827839e-01 4.7796843925164689e-01  4.9137339174862144e-01 1.6969181385890897e-01 4.5362441462840669e-01  4.8871026859231181e-01 1.7625538983824554e-01 4.3609573644459321e-01  4.8813151451732700e-01 1.7840669800443068e-01 4.3186038419581740e-01  4.8692322252917147e-01 1.8401074012397972e-01 4.2237729871289753e-01  4.8630340694544283e-01 1.8775306486384646e-01 4.1701598599545087e-01  4.8625464538341018e-01 1.8812703788364704e-01 4.1655157721766539e-01  4.8626922220122532e-01 1.8801143809868895e-01 4.1669235132883048e-01  4.8625669202028565e-01 1.8809779865173648e-01 4.1657784741229886e-01  4.8607755729242519e-01 1.8956878921052955e-01 4.1481946210050058e-01  4.8591465738953210e-01 1.9103215644928542e-01 4.1315218423704592e-01  4.8593851267513311e-01 1.9080195631886185e-01 4.1340462907466002e-01  4.8590958577562837e-01 1.9108109300787077e-01 4.1309849974939478e-01  4.8590832960372621e-01 1.9109395767192458e-01 4.1308483832733678e-01  4.8590393293924494e-01 1.9113713309435776e-01 4.1303791855209915e-01  4.8590394103855628e-01 1.9113705817118970e-01 4.1303800277817698e-01  4.8590557253934036e-01 1.9112169086025954e-01 4.1305510011667557e-01  4.8589858912171391e-01 1.9119333768624880e-01 4.1297909199128174e-01  4.8589185604775936e-01 1.9126563516474340e-01 4.1290424750605215e-01  4.8588714347171974e-01 1.9131596506781984e-01 4.1285198392912942e-01  4.8588610778250274e-01 1.9132718885972544e-01 4.1284041897658463e-01  4.8588607422806723e-01 1.9132763085004376e-01 4.1284000700484330e-01  4.8589123615210772e-01 1.9127330702460546e-01 4.1289687211460607e-01  4.8589950044149438e-01 1.9118809756054606e-01 4.1298704130111297e-01  4.8595852401257050e-01 1.9061216917286597e-01 4.1361467659639695e-01  4.8599043811207682e-01 1.9032095158059867e-01 4.1394376001730621e-01  4.8600927392654342e-01 1.9015017899860573e-01 4.1413737365336117e-01  4.8610019191764814e-01 1.8937313446774795e-01 4.1504725600314651e-01  4.8609937241200313e-01 1.8938202759226574e-01 4.1503809210363873e-01  4.8604041068085313e-01 1.8988116103225439e-01 4.1445057729499718e-01  4.8606075125998022e-01 1.8970932769376292e-01 4.1465310983820775e-01  4.8617362887617305e-01 1.8879960201483462e-01 4.1575362886415185e-01  4.8644003427377458e-01 1.8688726062646968e-01 4.1822304076526229e-01  4.8693642652335362e-01 1.8376292102356154e-01 4.2257752388482334e-01  4.8709797876913097e-01 1.8292555534157579e-01 4.2389537855281606e-01  4.8771997548898127e-01 1.7989756634092238e-01 4.2885082067766456e-01  4.8832268628162651e-01 1.7726771207506611e-01 4.3347060925112074e-01  4.8893009941220378e-01 1.7510665312758616e-01 4.3784826022998469e-01  4.8974477146242412e-01 1.7259321029637545e-01 4.4349199784938048e-01  4.9041602371353321e-01 1.7086414236475314e-01 4.4794172637423635e-01  4.9088448067768936e-01 1.6976895706144188e-01 4.5097946218772395e-01  4.9134494114983229e-01 1.6884909755048069e-01 4.5387707040710912e-01  4.9220625839543319e-01 1.6740115284320070e-01 4.5914104013935553e-01  4.9443912735785456e-01 1.6511670906208042e-01 4.7188310755574292e-01  4.9990910337428479e-01 1.6192523095928188e-01 5.0113615737801620e-01  5.0091840378091845e-01 1.6161795078848565e-01 5.0628487029410429e-01  5.0524899682033086e-01 1.6260773306628076e-01 5.2676939321054672e-01  5.1387485995096038e-01 1.6872125131237958e-01 5.6368534167909989e-01  5.1523472082645128e-01 1.7007787427113158e-01 5.6909215387279288e-01  5.1622384977562219e-01 1.7137058110944103e-01 5.7283820252575812e-01  5.1957207483518220e-01 1.7597114162579749e-01 5.8513767132434491e-01  5.2388338419731217e-01 1.8239341549597834e-01 6.0023627077218167e-01  5.3373406222915420e-01 2.0125289202928109e-01 6.3004074315971936e-01  5.3883028821544110e-01 2.1275220162770522e-01 6.4316770179981597e-01  5.4024828208197018e-01 2.1612393614060524e-01 6.4656021006074271e-01  5.4111196184675103e-01 2.1829988377117354e-01 6.4851367160278928e-01  5.4270445583468307e-01 2.2246373988123938e-01 6.5197809768008375e-01  5.4230684170754484e-01 2.2136106301402378e-01 6.5115276392230026e-01  5.4503062838649030e-01 2.2892010141537941e-01 6.5668956797657063e-01  5.4959082790337421e-01 2.4286503541823004e-01 6.6462583045191193e-01  5.5012016625239990e-01 2.4452716343844358e-01 6.6546079281117432e-01  5.4631396386786568e-01 2.3280886023622799e-01 6.5903166785351452e-01  5.5207087522665999e-01 2.5126705847209330e-01 6.6815569786106965e-01  5.5388123870675632e-01 2.5763546680822857e-01 6.7042662127303865e-01  5.5450304790824978e-01 2.5986391396787289e-01 6.7115207335510707e-01  5.5521567571970520e-01 2.6246952200283569e-01 6.7192571988435679e-01  5.5530581084618036e-01 2.6280223122411411e-01 6.7202047707637824e-01  5.5535560703129649e-01 2.6298809694110714e-01 6.7207165521518997e-01  5.5533971443681607e-01 2.6292885176375108e-01 6.7205530210578257e-01  5.5532167117352338e-01 2.6286147202327342e-01 6.7203677608762469e-01  5.5526548426030997e-01 2.6265196465950758e-01 6.7197877804141171e-01  5.5519333687361028e-01 2.6238328497539504e-01 6.7190388481584473e-01  5.5510018651740534e-01 2.6203659906139459e-01 6.7180666876969197e-01  5.5499109447557649e-01 2.6163094328322828e-01 6.7169201430570524e-01  5.5486884473187370e-01 2.6117690713444980e-01 6.7156247659390467e-01  5.5473724242053402e-01 2.6068877621104142e-01 6.7142175153470429e-01  5.5459618103414265e-01 2.6016663810087298e-01 6.7126931660019640e-01  5.5444862920749149e-01 2.5962165635137407e-01 6.7110812836116363e-01  5.5429698642767888e-01 2.5906291910808460e-01 6.7094054464252706e-01  5.5413880758486500e-01 2.5848205021840309e-01 6.7076347133499303e-01  5.5381829262709947e-01 2.5731092050644888e-01 6.7039781308321900e-01  5.5366708601060322e-01 2.5676136275908201e-01 6.7022203178863238e-01  5.5351451890129832e-01 2.5620933948797903e-01 6.7004229185337694e-01  5.5336042291667431e-01 2.5565433599762499e-01 6.6985835044817044e-01  5.5320573901934300e-01 2.5509981974646878e-01 6.6967126465106908e-01  5.5305157864746390e-01 2.5454976235620702e-01 6.6948242123531565e-01  5.5289749218077422e-01 2.5400279274037019e-01 6.6929119935832615e-01  5.5274614530766042e-01 2.5346830102456713e-01 6.6910101592085980e-01  5.5260165471780520e-01 2.5296065195069262e-01 6.6891724323320412e-01  5.5246938538209289e-01 2.5249837059691621e-01 6.6874709475330907e-01  5.5236042952820830e-01 2.5211958361863634e-01 6.6860543912510950e-01  5.5223156102551840e-01 2.5167726317599787e-01 6.6843429651056763e-01  5.5208051252303192e-01 2.5116396856291801e-01 6.6822994876626685e-01  5.5185046439718233e-01 2.5038522078500319e-01 6.6791507526174487e-01  5.5103149579226662e-01 2.4763353174796901e-01 6.6676501246882514e-01  5.5060917093500328e-01 2.4622870726750604e-01 6.6615297076319824e-01  5.5018950003741485e-01 2.4484460435775451e-01 6.6553013864359944e-01  5.4976520926405548e-01 2.4345781365219096e-01 6.6488557747228749e-01  5.4933526310837022e-01 2.4206563397813771e-01 6.6421723448396208e-01  5.4890050934057932e-01 2.4067136830174907e-01 6.6352600097199543e-01  5.4846284047462823e-01 2.3928150750805657e-01 6.6281456366469527e-01  5.4802441458478401e-01 2.3790300463778918e-01 6.6208650063641106e-01  5.4758892716986773e-01 2.3654768075220931e-01 6.6134790769679441e-01  5.4715798132685312e-01 2.3522059991034935e-01 6.6060192552533792e-01  5.4673984451125535e-01 2.3394621657104789e-01 6.5986406545810006e-01  5.4634380268891181e-01 2.3275196182680039e-01 6.5915218776915330e-01  5.4567522760532872e-01 2.3077129957097794e-01 6.5791752511204626e-01  5.4527131632974069e-01 2.2959536124968918e-01 6.5715214489178742e-01  5.4482919967989063e-01 2.2832125477898088e-01 6.5630026091699523e-01  5.4436368741644159e-01 2.2699381585760511e-01 6.5538773280349727e-01  5.4388363771955894e-01 2.2563899491351547e-01 6.5443019841227956e-01  5.4339624259531250e-01 2.2427663408622664e-01 6.5344143088806850e-01  5.4290115783261705e-01 2.2290500704845950e-01 6.5242058931300639e-01  5.4196488580652813e-01 2.2032418897084885e-01 6.5045449564771696e-01  5.4167956223689528e-01 2.1953583402345200e-01 6.4984738957063570e-01  5.4149219898566991e-01 2.1901228396562972e-01 6.4944791703463511e-01  5.4136999703693822e-01 2.1866550434614479e-01 6.4918774246416489e-01  5.4130259567566996e-01 2.1846699539017059e-01 6.4904595454746261e-01  5.4127454232371053e-01 2.1837651802154068e-01 6.4898915989636063e-01  5.4127094730251402e-01 2.1835588669553230e-01 6.4898455914561315e-01  5.4125852524757678e-01 2.1832493275689377e-01 6.4895660543987466e-01  5.4119356810930430e-01 2.1817398617883788e-01 6.4880704726335559e-01  5.4105936067251825e-01 2.1785832801348562e-01 6.4849835961859637e-01  5.4084201621392891e-01 2.1734565108774753e-01 6.4799668612532113e-01  5.4052129433576435e-01 2.1658969338976738e-01 6.4725115995561844e-01  5.4007858009459520e-01 2.1555098329533129e-01 6.4621080504347539e-01  5.3948996936180371e-01 2.1418217493631317e-01 6.4480572539209602e-01  5.3871156485069283e-01 2.1239413448051295e-01 6.4290883166504631e-01  5.3762943120853246e-01 2.0994673285716112e-01 6.4020173300403227e-01  5.3358720548962535e-01 2.0108657009643791e-01 6.2957898690881098e-01  5.3204262257225177e-01 1.9783356181572681e-01 6.2530743448685966e-01  5.3072258065446398e-01 1.9513867408816715e-01 6.2153769608973719e-01  5.2960930042248056e-01 1.9293507892721473e-01 6.1827215318127848e-01  5.2872528070323810e-01 1.9123545296003355e-01 6.1562286452910109e-01  5.2788220095605776e-01 1.8969898967005494e-01 6.1301740116691827e-01  5.2720001957552665e-01 1.8852030821352697e-01 6.1084653578114756e-01  5.2618157240812391e-01 1.8680269320882611e-01 6.0755082192391241e-01  5.2235399048928910e-01 1.8063342954677664e-01 5.9475763021040629e-01  5.2069534948741802e-01 1.7812022169065841e-01 5.8899284252355111e-01  5.1921954834439266e-01 1.7599104003311625e-01 5.8372290538817295e-01  5.1784579842814937e-01 1.7410806966604114e-01 5.7869400440769592e-01  5.1653940133717102e-01 1.7241105545106630e-01 5.7379934149106882e-01  5.1527196085945282e-01 1.7085195179882079e-01 5.6894769471127660e-01  5.1400130918899467e-01 1.6937295464355617e-01 5.6398469391701489e-01  5.1131325289810203e-01 1.6648242010810591e-01 5.5320061320972758e-01  5.1045916119052459e-01 1.6563049845908409e-01 5.4969446635391994e-01  5.0981853296247515e-01 1.6502157857162919e-01 5.4703230313079021e-01  5.0935290052503857e-01 1.6459991935226981e-01 5.4507804025679463e-01  5.0887264630228368e-01 1.6420837182987749e-01 5.4303273810772346e-01  5.0851731905798503e-01 1.6395370683863683e-01 5.4149751652483369e-01  5.0809039310896020e-01 1.6366599835847095e-01 5.3963982048497861e-01  5.0761627056183201e-01 1.6336630121419501e-01 5.3756139350816667e-01  5.0711877306847708e-01 1.6307381672742677e-01 5.3536319259966536e-01  5.0660759206732997e-01 1.6279591926593215e-01 5.3308601466714634e-01  5.0609262624733009e-01 1.6253923094843903e-01 5.3077276887840119e-01  5.0558497981751160e-01 1.6231000439968191e-01 5.2847311318111378e-01  5.0509797662423905e-01 1.6211315097722503e-01 5.2624836190257840e-01  5.0418806283298800e-01 1.6181810873758912e-01 5.2203479523326624e-01  5.0364869294536863e-01 1.6168920370689893e-01 5.1950119396721128e-01  5.0308431918502694e-01 1.6158633237140219e-01 5.1682470569579830e-01  5.0250280004239367e-01 1.6151531759156573e-01 5.1403859714328337e-01  5.0191137690591792e-01 1.6147924370868330e-01 5.1117583044286685e-01  5.0131503964435697e-01 1.6148144406304171e-01 5.0825831550697775e-01  5.0071610280545598e-01 1.6152414692312461e-01 5.0529576067929405e-01  5.0011740237806479e-01 1.6160910654023675e-01 5.0230103035125795e-01  4.9952187446853757e-01 1.6173736929320251e-01 4.9928815449320796e-01  4.9893011025772133e-01 1.6191068575904929e-01 4.9625907521413198e-01  4.9834353326632436e-01 1.6212962344787488e-01 4.9322085258481313e-01  4.9776389790259201e-01 1.6239445836830330e-01 4.9018246175341718e-01  4.9718985571882052e-01 1.6270771493729061e-01 4.8713588908145644e-01  4.9662493876742847e-01 1.6307015728727614e-01 4.8409853333901798e-01  4.9606491562146576e-01 1.6348421376143901e-01 4.8104835859891792e-01  4.9499108016183258e-01 1.6444174120871538e-01 4.7508493413863018e-01  4.9449034769217459e-01 1.6497034506428657e-01 4.7224754204795544e-01  4.9399878778768341e-01 1.6554355398881027e-01 4.6942525089808246e-01  4.9351252945706392e-01 1.6617151585775694e-01 4.6659235890472456e-01  4.9302846970828890e-01 1.6685741939701831e-01 4.6373147000938791e-01  4.9253623703415078e-01 1.6762115715788847e-01 4.6077798508250933e-01  4.9201238566058858e-01 1.6851068006227285e-01 4.5758376024209563e-01  4.9077132886892355e-01 1.7090470492813770e-01 4.4982991618695567e-01  4.9034311995815327e-01 1.7183642105931909e-01 4.4708696552728255e-01  4.8999054831534083e-01 1.7266025301541593e-01 4.4479256818723262e-01  4.8968740936152988e-01 1.7341701011898625e-01 4.4278971744040369e-01  4.8942232565830418e-01 1.7412040437010581e-01 4.4101294077495318e-01  4.8919062806871660e-01 1.7477158431523407e-01 4.3943824070546322e-01  4.8899066966698568e-01 1.7536459673749774e-01 4.3806106443073001e-01  4.8882492374717001e-01 1.7588117389923488e-01 4.3690506128704332e-01  4.8862032348520035e-01 1.7656719412913452e-01 4.3545042377096832e-01  4.8848950399296392e-01 1.7703756027943468e-01 4.3450222149181145e-01  4.8833293221895002e-01 1.7762309535744328e-01 4.3335441432306288e-01  4.8791824785544441e-01 1.7927171412100690e-01 4.3025814328837420e-01  4.8774734193667851e-01 1.7999515852311207e-01 4.2895669454688995e-01  4.8759550910859090e-01 1.8066553214721942e-01 4.2778449812775393e-01  4.8745538991149345e-01 1.8130968186893021e-01 4.2668802090356295e-01  4.8732357053265524e-01 1.8194049492625999e-01 4.2564222126661111e-01  4.8719689423595020e-01 1.8257046556156564e-01 4.2462353826166099e-01  4.8707065849140324e-01 1.8322197205934590e-01 4.2359478535127898e-01  4.8678866895500450e-01 1.8475620967839201e-01 4.2125155224903399e-01  4.8669640576047513e-01 1.8528362763352657e-01 4.2047030364360682e-01  4.8662280895255028e-01 1.8571624479455603e-01 4.1984029081090052e-01  4.8656168612036887e-01 1.8608474289258831e-01 4.1931180697713866e-01  4.8651004900555767e-01 1.8640321230814799e-01 4.1886127928905120e-01  4.8646611167523085e-01 1.8667972927915288e-01 4.1847480954224608e-01  4.8642877948150504e-01 1.8691893587738140e-01 4.1814404614834144e-01  4.8639728750862898e-01 1.8712391894917324e-01 4.1786323521899899e-01  4.8637097315668748e-01 1.8729750819327548e-01 4.1762730125585407e-01  4.8634943751297005e-01 1.8744118205654417e-01 4.1743331284119939e-01  4.8633228618985513e-01 1.8755665367794480e-01 4.1727823113547380e-01  4.8631932015800133e-01 1.8764456322681777e-01 4.1716064711814188e-01  4.8631032738564767e-01 1.8770583170217806e-01 4.1707892691102688e-01  4.8630506880416091e-01 1.8774176738705645e-01 4.1703107875398360e-01  4.8630286647985654e-01 1.8775735860413958e-01 4.1701076592943137e-01  4.8630066255602850e-01 1.8777423051302758e-01 4.1698979910172346e-01  4.8629660369622335e-01 1.8780510101810272e-01 4.1695128403674514e-01  4.8629063477837292e-01 1.8785041266638969e-01 4.1689468197443941e-01  4.8628219608791173e-01 1.8791423375654315e-01 4.1681476935084028e-01  4.8626137899093308e-01 1.8807131024464610e-01 4.1661778102377905e-01  4.8626186814809613e-01 1.8806435062207266e-01 4.1662404593302627e-01  4.8626002423317938e-01 1.8807583295171487e-01 4.1660780674073772e-01  4.8625833632960513e-01 1.8808689070821755e-01 4.1659266627568609e-01  4.8625722226914631e-01 1.8809427618522950e-01 4.1658262879171903e-01  4.8625732937633587e-01 1.8809356467077398e-01 4.1658359458932198e-01  4.8625886056002865e-01 1.8808338462183766e-01 4.1659740457414285e-01  4.8626168619996790e-01 1.8806438740358641e-01 4.1662299028676864e-01  4.8623898501650620e-01 1.8825082121121284e-01 4.1640049785184241e-01  4.8622377370847841e-01 1.8837079081523750e-01 4.1625384440623037e-01  4.8620811565198152e-01 1.8849485131733432e-01 4.1610255583399608e-01  4.8619196968265538e-01 1.8862368844440944e-01 4.1594604906143762e-01  4.8617534006169072e-01 1.8875750678343575e-01 4.1578423983467322e-01  4.8615825636653748e-01 1.8889624032379446e-01 4.1561732460204254e-01  4.8614062187396445e-01 1.8904083412634226e-01 4.1544427164166070e-01  4.8612215252157409e-01 1.8919376400473145e-01 4.1526221178581746e-01  4.8610215235376159e-01 1.8936103348693684e-01 4.1506415219532811e-01  4.8605361303852773e-01 1.8977301014373024e-01 4.1458017042585221e-01  4.8603574454969545e-01 1.8992698157124802e-01 4.1440074486289219e-01  4.8602046864084908e-01 1.9005993506012292e-01 4.1424663940082140e-01  4.8600707598134835e-01 1.9017766178431397e-01 4.1411090783225335e-01  4.8599513001133809e-01 1.9028367111909977e-01 4.1398930487742636e-01  4.8598444686254455e-01 1.9037934623028807e-01 4.1388009385954155e-01  4.8597487984113813e-01 1.9046577608484239e-01 4.1378189640514712e-01  4.8596633072385387e-01 1.9054365198060930e-01 4.1369380940549483e-01  4.8595873085432967e-01 1.9061342406939463e-01 4.1361521883466157e-01  4.8595206315700934e-01 1.9067509381293041e-01 4.1354603046603738e-01  4.8594633037040103e-01 1.9072848808388806e-01 4.1348635071602557e-01  4.8594162272408298e-01 1.9077262363883415e-01 4.1343719380297134e-01  4.8593551331791035e-01 1.9083051490058697e-01 4.1337308611761592e-01  4.8593154404320332e-01 1.9086854745644713e-01 4.1333122112997228e-01  4.8592704528314096e-01 1.9091190572182243e-01 4.1328364243578936e-01  4.8592188256113389e-01 1.9096192011475188e-01 4.1322890945123603e-01  4.8591112826842942e-01 1.9106630861027563e-01 4.1311477974250038e-01  4.8591007302901107e-01 1.9107645416904137e-01 4.1310362729310579e-01  4.8590970020630653e-01 1.9108000834209415e-01 4.1309970166119303e-01  4.8590969273467188e-01 1.9108007950034450e-01 4.1309962302050801e-01  4.8590989894746484e-01 1.9107814272611917e-01 4.1310178021347310e-01  4.8590998116864736e-01 1.9107746375407983e-01 4.1310259481618122e-01  4.8590952269212562e-01 1.9108210465144493e-01 4.1309763535312982e-01  4.8590676425623597e-01 1.9110942278917650e-01 4.1306808956916452e-01  4.8590553629987887e-01 1.9112150114070803e-01 4.1305497578268990e-01  4.8590465810973632e-01 1.9113008371148929e-01 4.1304562347879792e-01  4.8590412188798793e-01 1.9113529897265608e-01 4.1303992488755104e-01  4.8590394803130860e-01 1.9113698860879585e-01 4.1303807783840907e-01  4.8590407292083010e-01 1.9113578562326528e-01 4.1303939949431645e-01  4.8590442789961058e-01 1.9113236914100440e-01 4.1304315468594943e-01  4.8590495144642315e-01 1.9112739207404039e-01 4.1304866325189044e-01  4.8590387829771087e-01 1.9113916184030105e-01 4.1303661856933921e-01  4.8590233888472417e-01 1.9115489145805276e-01 4.1301989477111178e-01  4.8590098592218106e-01 1.9116871793126305e-01 4.1300519491857823e-01  4.8589986403344426e-01 1.9118021211931893e-01 4.1299299122902933e-01  4.8589902629044218e-01 1.9118882295047115e-01 4.1298386481185212e-01  4.8589826085735638e-01 1.9119679313719415e-01 4.1297547672232787e-01  4.8589776055869965e-01 1.9120211136005186e-01 4.1296994184599767e-01  4.8589716125