<?xml version="1.0"?>
<VTKFile type="UnstructuredGrid"  version="0.1"  >
<UnstructuredGrid>
<Piece  NumberOfPoints="7288" NumberOfCells="14083">
<Points>
<DataArray  type="Float64"  NumberOfComponents="3"  format="ascii">239.8 188 0  250.2 180 0  258.2 172.4 0  257 169.4 0  259.9 157.4 0  258.7 150.3 0  261 143.5 0  251.7 144.4 0  250 138.7 0  247 138.1 0  245.2 130.8 0  247.3 126.4 0  242.7 118.6 0  231.2 107.7 0  226 102.4 0  226.5 93.90000000000001 0  224.5 91.19999999999999 0  224.5 84.09999999999999 0  234.5 73.80000000000001 0  228.4 68.90000000000001 0  230 70 0  233.4 68 0  222.7 61.5 0  220.6 45.5 0  223.4 49.40000000000001 0  224 47 0  221.8 43.09999999999999 0  221 38.40000000000001 0  219.5 38.5 0  219.4 41.69999999999999 0  217.1 36.90000000000001 0  209.7 36 0  209.5 31.69999999999999 0  205.1 29.90000000000001 0  201.5 30.40000000000001 0  199.2 38.69999999999999 0  201.8 41.40000000000001 0  194.8 53.80000000000001 0  196.1 57.69999999999999 0  193 59 0  191.4 66.09999999999999 0  193.5 66.5 0  194.1 64.40000000000001 0  195.6 64.69999999999999 0  195.4 72.40000000000001 0  199.5 77.30000000000001 0  197.7 86.90000000000001 0  200.6 87.5 0  201.5 91 0  198 94.80000000000001 0  198.6 100 0  197.3 105.4 0  198 109.5 0  197 112.7 0  198.3 116.1 0  201.3 122 0  207.2 121 0  208.1 126.7 0  205.6 127.9 0  209.1 134.9 0  210.9 144.4 0  210.1 147.9 0  213 148.4 0  215.4 149.3 0  215.1 152.8 0  219.9 159.7 0  220.3 163.2 0  218.7 164.9 0  219.9 166.7 0  221.9 169.7 0  220 170.3 0  224.9 174.7 0  229.8 177.4 0  229.7 181 0  228 172.9 0  239 178 0  240.4 180 0  239 181.5 0  241.2 185.9 0  242.95 187.99 0  240.5875 187.9975 0  241.375 187.995 0  242.1625 187.9925 0  243.6090909090879 187.2636363636397 0  244.2681818181765 186.5372727272785 0  244.9272727272692 185.810909090913 0  245.5863636363531 185.0845454545571 0  246.245454545445 184.3581818181923 0  246.9045454545351 183.6318181818295 0  247.5636363636303 182.9054545454612 0  248.2227272727197 182.1790909090992 0  248.8818181818179 181.4527272727275 0  249.5409090909066 180.7263636363664 0  250.8666666666961 179.3666666666387 0  251.5333333334033 178.7333333332668 0  252.2000000000994 178.0999999999055 0  252.8666666668011 177.466666666539 0  253.5333333335083 176.8333333331671 0  254.2000000002044 176.1999999998058 0  254.8666666669005 175.5666666664445 0  255.5333333336077 174.9333333330727 0  256.2000000002685 174.2999999997449 0  256.8666666668457 173.6666666664966 0  257.5333333334283 173.033333333243 0  257.9000000000077 171.6500000000191 0  257.6000000000015 170.9000000000038 0  257.2999999999954 170.1499999999885 0  257.2230769230778 168.4769230769195 0  257.4461538461543 167.5538461538442 0  257.6692307692309 166.6307692307688 0  257.8923076923074 165.7076923076935 0  258.115384615384 164.7846153846181 0  258.3384615384605 163.8615384615427 0  258.5615384615395 162.9384615384572 0  258.784615384616 162.0153846153819 0  259.0076923076926 161.0923076923065 0  259.2307692307691 160.1692307692311 0  259.4538461538457 159.2461538461558 0  259.6769230769222 158.3230769230804 0  259.750000000001 156.512500000006 0  259.6000000000014 155.6250000000082 0  259.4500000000029 154.7375000000176 0  259.3000000000018 153.8500000000108 0  259.1500000000007 152.962500000004 0  259.0000000000004 152.0750000000026 0  258.849999999999 151.187499999994 0  258.9875000000052 149.4499999999846 0  259.275000000002 148.5999999999941 0  259.5624999999954 147.7500000000135 0  259.849999999995 146.900000000015 0  260.1374999999945 146.0500000000164 0  260.4249999999913 145.2000000000259 0  260.7124999999948 144.3500000000154 0  260.0700000000398 143.5899999999961 0  259.1400000000573 143.6799999999944 0  258.2100000000351 143.7699999999966 0  257.2800000000262 143.8599999999975 0  256.350000000011 143.9499999999989 0  255.4199999999881 144.0400000000011 0  254.4899999999726 144.1300000000026 0  253.5599999999944 144.2200000000005 0  252.6300000000009 144.3099999999999 0  251.4166666666658 143.4499999999971 0  251.1333333333388 142.5000000000182 0  250.8500000000015 141.5500000000051 0  250.5666666666612 140.5999999999818 0  250.2833333333342 139.6500000000029 0  249.2500000000005 138.5500000000001 0  248.5000000000011 138.4000000000002 0  247.7499999999995 138.2499999999999 0  246.7750000000005 137.1875000000023 0  246.5500000000021 136.2750000000085 0  246.3250000000036 135.3625000000147 0  246.1000000000042 134.450000000017 0  245.8750000000022 133.5375000000088 0  245.650000000003 132.6250000000124 0  245.4250000000046 131.7125000000187 0  245.619999999996 129.9200000000084 0  246.0399999999992 129.0400000000017 0  246.4599999999987 128.1600000000028 0  246.8800000000001 127.2799999999997 0  246.8399999999988 125.6199999999979 0  246.3799999999984 124.8399999999973 0  245.9199999999991 124.0599999999985 0  245.4600000000036 123.2800000000062 0  245.0000000000049 122.5000000000082 0  244.5400000000036 121.7200000000062 0  244.0800000000033 120.9400000000056 0  243.6200000000016 120.1600000000027 0  243.1600000000012 119.3800000000021 0  241.9812499999996 117.9187499999997 0  241.2625000000007 117.2375000000007 0  240.5437500000017 116.5562500000017 0  239.8250000000041 115.875000000004 0  239.1062500000066 115.1937500000063 0  238.3875000000076 114.5125000000072 0  237.6687500000087 113.8312500000082 0  236.9500000000083 113.1500000000079 0  236.231250000008 112.4687500000076 0  235.512500000009 111.7875000000085 0  234.7937500000045 111.1062500000043 0  234.0750000000042 110.4250000000039 0  233.3562500000066 109.7437500000062 0  232.6375000000021 109.062500000002 0  231.9187500000031 108.381250000003 0  230.5500000000004 107.0375000000004 0  229.9000000000021 106.3750000000021 0  229.2500000000038 105.7125000000039 0  228.6000000000041 105.0500000000042 0  227.9500000000018 104.3875000000018 0  227.2999999999952 103.7249999999951 0  226.6500000000024 103.0625000000024 0  226.0555555555555 101.4555555555556 0  226.1111111111111 100.5111111111111 0  226.1666666666667 99.56666666666668 0  226.2222222222222 98.62222222222223 0  226.2777777777778 97.67777777777778 0  226.3333333333333 96.73333333333335 0  226.3888888888889 95.78888888888889 0  226.4444444444445 94.84444444444446 0  226 93.22499999999999 0  225.5000000000026 92.55000000000358 0  225.0000000000026 91.87500000000358 0  224.5 90.31250000000068 0  224.5 89.4250000000097 0  224.5 88.53750000001317 0  224.5 87.65000000001388 0  224.5 86.76250000001457 0  224.5 85.87500000001248 0  224.5 84.9874999999993 0  225.1666666666659 83.41333333333409 0  225.8333333333319 82.72666666666818 0  226.4999999999978 82.04000000000228 0  227.1666666666649 81.35333333333514 0  227.8333333333301 80.66666666667 0  228.4999999999942 79.980000000006 0  229.1666666666601 79.2933333333401 0  229.8333333333316 78.60666666666847 0  230.4999999999975 77.92000000000257 0  231.1666666666644 77.23333333333572 0  231.8333333333295 76.54666666667057 0  232.4999999999972 75.86000000000287 0  233.1666666666681 75.17333333333181 0  233.8333333333368 74.48666666666306 0  233.7499999999995 73.16666666666629 0  233.0000000000018 72.53333333333488 0  232.2500000000014 71.90000000000116 0  231.5000000000009 71.26666666666743 0  230.7500000000005 70.63333333333372 0  229.233333333333 68.75000000000006 0  230.0666666666665 68.60000000000004 0  230.8999999999995 68.45000000000009 0  231.7333333333325 68.30000000000015 0  232.566666666667 68.14999999999995 0  232.5499999999897 68.50000000000607 0  231.7 69 0  230.8500000000103 69.49999999999393 0  227.8300000000008 68.16000000000106 0  227.2600000000064 67.42000000000837 0  226.6900000000077 66.68000000001001 0  226.1200000000024 65.94000000000314 0  225.5500000000108 65.20000000001409 0  224.9800000000098 64.46000000001268 0  224.4100000000007 63.72000000000098 0  223.8399999999971 62.97999999999621 0  223.2699999999993 62.23999999999915 0  222.753846153846 60.56923076923239 0  222.8076923076921 59.63846153846478 0  222.8615384615381 58.70769230769827 0  222.9153846153842 57.77692307693071 0  222.9692307692302 56.84615384616315 0  223.0230769230761 55.91538461539836 0  223.0769230769224 54.98461538462665 0  223.1307692307688 54.05384615385345 0  223.184615384615 53.12307692308312 0  223.2384615384611 52.19230769231556 0  223.2923076923071 51.26153846154906 0  223.3461538461533 50.33076923077847 0  222.8400000000024 48.62000000000327 0  222.2800000000047 47.84000000000661 0  221.7200000000005 47.06000000000071 0  221.1600000000003 46.28000000000039 0  221.4500000000116 45.87500000000512 0  222.3 46.25 0  223.1499999999884 46.62499999999488 0  223.5600000000055 46.22000000000981 0  223.1199999999987 45.43999999999767 0  222.6800000000061 44.66000000001075 0  222.2399999999969 43.8799999999944 0  221.6400000000004 42.16000000000253 0  221.4800000000009 41.22000000000548 0  221.3200000000014 40.28000000000801 0  221.1600000000009 39.34000000000556 0  220.25 38.45 0  219.4749999999999 39.30000000000165 0  219.45 40.09999999999999 0  219.425 40.90000000000112 0  219.0166666666641 40.89999999999463 0  218.6333333333375 40.10000000000875 0  218.2500000000016 39.30000000000339 0  217.8666666666635 38.49999999999351 0  217.483333333337 37.70000000000762 0  216.1750000000165 36.78750000000201 0  215.2500000000275 36.67500000000335 0  214.3250000000385 36.56250000000469 0  213.4000000000277 36.45000000000337 0  212.4750000000059 36.33750000000072 0  211.5499999999838 36.22499999999803 0  210.6249999999835 36.11249999999799 0  209.6600000000001 35.14000000000318 0  209.6200000000001 34.28000000000268 0  209.5800000000001 33.42000000000284 0  209.5399999999998 32.55999999999681 0  208.6200000000117 31.34000000000476 0  207.7400000000138 30.98000000000564 0  206.8600000000162 30.62000000000662 0  205.9800000000174 30.26000000000711 0  204.2000000000054 30.02499999999925 0  203.2999999999946 30.15000000000076 0  202.3999999999945 30.27500000000076 0  201.2444444444438 31.32222222222468 0  200.9888888888895 32.24444444
[...]
<PointData  Vectors="f_12"> 
<DataArray  type="Float64"  Name="f_12"  NumberOfComponents="3" format="ascii">5.1561568813811431e-01 9.1503738720792621e-02 5.9960165430099377e-01  5.1492458547651154e-01 9.0970043808615855e-02 5.9596307642017254e-01  5.1412354658433901e-01 9.0365426286403622e-02 5.9172163069392469e-01  5.1377529957388979e-01 9.0109838439947243e-02 5.8986764010215909e-01  5.1154232246889364e-01 8.8529127375768846e-02 5.7787481971528432e-01  5.1023189729339880e-01 8.7659383589427847e-02 5.7074350573729415e-01  5.0981880493001452e-01 8.7389532529388539e-02 5.6848386936076623e-01  5.0819725810050020e-01 8.6420793619494479e-02 5.5952072926762142e-01  5.0594943925957903e-01 8.5145143119162534e-02 5.4696586472826370e-01  5.0488379811853912e-01 8.4602726211643650e-02 5.4092437918836600e-01  5.0136727154568361e-01 8.2963874913726740e-02 5.2074873194988225e-01  5.0032769278391132e-01 8.2533017655731483e-02 5.1470488268665104e-01  4.9904278553907944e-01 8.2061662363875534e-02 5.0716568279012875e-01  4.9641371615773799e-01 8.1250236720507060e-02 4.9155764014217967e-01  4.9515716452138864e-01 8.0933866601751780e-02 4.8401218542791974e-01  4.9434826040813490e-01 8.0751518818840337e-02 4.7912920945520743e-01  4.9419148555142667e-01 8.0718907545508381e-02 4.7817988083400881e-01  4.9393692238413950e-01 8.0666428817377997e-02 4.7663783983969871e-01  4.9387571357522125e-01 8.0652954529120482e-02 4.7626784172380160e-01  4.9391835673133982e-01 8.0660676122113348e-02 4.7652712825637589e-01  4.9390094582641819e-01 8.0657492039802506e-02 4.7642129419661894e-01  4.9389817050082785e-01 8.0656921882907975e-02 4.7640448128314944e-01  4.9414312325485382e-01 8.0702605666357910e-02 4.7789244299960337e-01  4.9453197187839831e-01 8.0778964088866853e-02 4.8025005060425385e-01  4.9444145353761315e-01 8.0760684056558896e-02 4.7970179582317812e-01  4.9455065823893768e-01 8.0782732114224390e-02 4.8036322877092524e-01  4.9455799858103922e-01 8.0784243813498940e-02 4.8040765975110433e-01  4.9457645691970997e-01 8.0788003549311427e-02 4.8051941585755975e-01  4.9457644278317681e-01 8.0788000778443891e-02 4.8051933021170434e-01  4.9457238753863736e-01 8.0787191055463170e-02 4.8049476796645479e-01  4.9461478382833207e-01 8.0795916215795432e-02 4.8075138732404860e-01  4.9467060341727165e-01 8.0807534017502403e-02 4.8108912475929178e-01  4.9470888585286443e-01 8.0815522682012295e-02 4.8132071694033024e-01  4.9471806802582996e-01 8.0817445630437024e-02 4.8137625643297072e-01  4.9471871016435859e-01 8.0817580538123240e-02 4.8138014042085542e-01  4.9468010327498024e-01 8.0809517974136394e-02 4.8114660285044325e-01  4.9462616969584194e-01 8.0798359339480930e-02 4.8082022899399163e-01  4.9436379043695994e-01 8.0745146971701612e-02 4.7923119372982220e-01  4.9428387092373266e-01 8.0729467424788870e-02 4.7874659945998088e-01  4.9423858205527371e-01 8.0720605523563332e-02 4.7847195243884461e-01  4.9410686548702160e-01 8.0695470750377848e-02 4.7767250863217281e-01  4.9411048033593485e-01 8.0696172955319279e-02 4.7769444025880392e-01  4.9418957602970887e-01 8.0711209768534201e-02 4.7817456963710697e-01  4.9416321437651167e-01 8.0706203927826917e-02 4.7801454635949364e-01  4.9405867232790396e-01 8.0686603442316346e-02 4.7737968220565213e-01  4.9396021227125153e-01 8.0669067866321983e-02 4.7678083578231056e-01  4.9390854660881905e-01 8.0661106774396502e-02 4.7646542894110649e-01  4.9392851221875067e-01 8.0665328495888811e-02 4.7658627242434726e-01  4.9402032550150787e-01 8.0684424969714050e-02 4.7714224149724915e-01  4.9413038755279004e-01 8.0707017001501069e-02 4.7780892686404347e-01  4.9428372373192769e-01 8.0738630034239187e-02 4.7873753525868029e-01  4.9451133543128900e-01 8.0786356036474258e-02 4.8011498709291967e-01  4.9471752899772103e-01 8.0830894419023025e-02 4.8136139591326771e-01  4.9486506321115875e-01 8.0863294502347138e-02 4.8225261197145364e-01  4.9501783926705489e-01 8.0897879450157265e-02 4.8317453679929923e-01  4.9531074356468030e-01 8.0966368231151026e-02 4.8494001184557739e-01  4.9605695022883384e-01 8.1161126157219543e-02 4.8941638385087183e-01  4.9776868254274553e-01 8.1647286525446922e-02 4.9963042572948752e-01  4.9807328370516352e-01 8.1738467562548683e-02 5.0144106689844248e-01  4.9933405552061960e-01 8.2171281897801346e-02 5.0887582616068405e-01  5.0178597162382121e-01 8.3126151271961185e-02 5.2318496460616559e-01  5.0216982244130570e-01 8.3287486439649477e-02 5.2540846888107351e-01  5.0245751590071497e-01 8.3420101393362547e-02 5.2706366984706565e-01  5.0342865135182180e-01 8.3875642318588448e-02 5.3263456370494411e-01  5.0467981174574372e-01 8.4479390051686712e-02 5.3978171529752994e-01  5.0762697027295212e-01 8.6085890863475234e-02 5.5635287300852954e-01  5.0920152170634780e-01 8.7018720073661140e-02 5.6508294290524441e-01  5.0964450816149487e-01 8.7288229131960840e-02 5.6752574666152367e-01  5.0992355495850428e-01 8.7464062188996522e-02 5.6905641632737802e-01  5.1045284547223124e-01 8.7803874253689518e-02 5.7195161917191817e-01  5.1031274086157774e-01 8.7711294284686464e-02 5.7118802245581479e-01  5.1126613935776610e-01 8.8340816819577186e-02 5.7637970336662991e-01  5.1301220761288446e-01 8.9554454399549968e-02 5.8579291660875177e-01  5.1321555334842650e-01 8.9698287984773820e-02 5.8688292878941184e-01  5.1175955185367084e-01 8.8681827444790015e-02 5.7904667264722487e-01  5.1409420155486829e-01 9.0349363081450515e-02 5.9156130162061094e-01  5.1491476305108508e-01 9.0966481741056190e-02 5.9590809550109369e-01  5.1520377627137071e-01 9.1185935544446109e-02 5.9743463496158566e-01  5.1554362540950016e-01 9.1447786029424868e-02 5.9922305110478813e-01  5.1558726735021465e-01 9.1481609497655991e-02 5.9945240369520281e-01  5.1561203992660820e-01 9.1500900497785490e-02 5.9958249463670399e-01  5.1560416398216879e-01 9.1494769519249994e-02 5.9954113466822423e-01  5.1559517776080788e-01 9.1487770007854269e-02 5.9949394630656494e-01  5.1556725050621321e-01 9.1466041221302946e-02 5.9934725439029457e-01  5.1553143212556563e-01 9.1438200135521258e-02 5.9915906186093515e-01  5.1548513821305653e-01 9.1402245236744187e-02 5.9891576154832282e-01  5.1543086400376070e-01 9.1360136795808539e-02 5.9863041651669813e-01  5.1536999807860107e-01 9.1312973165650665e-02 5.9831028277051934e-01  5.1530440002200573e-01 9.1262213861448060e-02 5.9796509764423311e-01  5.1523412150871972e-01 9.1207924993971470e-02 5.9759509499760688e-01  5.1516062587339562e-01 9.1151253783453956e-02 5.9720794703731850e-01  5.1508510978627597e-01 9.1093141058117597e-02 5.9680992597434457e-01  5.1500654037685656e-01 9.1032817765251656e-02 5.9639556131829341e-01  5.1484785965654878e-01 9.0911406036840600e-02 5.9555794993198141e-01  5.1477330438296331e-01 9.0854562157330176e-02 5.9516405303969244e-01  5.1469851333003025e-01 9.0797684371042048e-02 5.9476867749799489e-01  5.1462344794468706e-01 9.0740743736613186e-02 5.9437162201644933e-01  5.1454859621028826e-01 9.0684110621613453e-02 5.9397546809771906e-01  5.1447451979043457e-01 9.0628203872404334e-02 5.9358319958319228e-01  5.1440112367650070e-01 9.0572954039959935e-02 5.9319431914678078e-01  5.1432968244858834e-01 9.0519313119288777e-02 5.9281559505867576e-01  5.1426211353727513e-01 9.0468710313936829e-02 5.9245721317671018e-01  5.1420088527970953e-01 9.0422975925172511e-02 5.9213230223623892e-01  5.1415098711848106e-01 9.0385806924678347e-02 5.9186738649068560e-01  5.1409368484542994e-01 9.0343414632261101e-02 5.9156282752496003e-01  5.1402796036452980e-01 9.0295061573224866e-02 5.9121315889828541e-01  5.1392833289856132e-01 9.0221919961538430e-02 5.9068282513788062e-01  5.1357571003191893e-01 8.9964121596556063e-02 5.8880349228468754e-01  5.1339543635638218e-01 8.9833087603339870e-02 5.8784119363747478e-01  5.1321781167896818e-01 8.9704642946281735e-02 5.8689180096147953e-01  5.1303988401527834e-01 8.9576685944110043e-02 5.8593952538060201e-01  5.1286133037233361e-01 8.9449009763844026e-02 5.8498262330821216e-01  5.1268258822868906e-01 8.9321937960194206e-02 5.8402343841330395e-01  5.1250449574080958e-01 8.9196065972550240e-02 5.8306648043094611e-01  5.1232795966140188e-01 8.9072013386095161e-02 5.8211667007956391e-01  5.1215448842536881e-01 8.8950830566571756e-02 5.8118215069390133e-01  5.1198480640153010e-01 8.8832993914856190e-02 5.8026690321066110e-01  5.1182200362511010e-01 8.8720584087132084e-02 5.7938771701867620e-01  5.1166962217798562e-01 8.8615985916996293e-02 5.7856385537869237e-01  5.1141777537819799e-01 8.8444778126161472e-02 5.7719980057871467e-01  5.1126866925684245e-01 8.8344369943509596e-02 5.7639081478662491e-01  5.1110705645860721e-01 8.8236138178688042e-02 5.7551302474901889e-01  5.1093856304406748e-01 8.8123923622052874e-02 5.7459684888076490e-01  5.1076628049300177e-01 8.8009816728627135e-02 5.7365899790480657e-01  5.1059253202103372e-01 8.7895340835506666e-02 5.7271209462989170e-01  5.1041695687924282e-01 8.7780225387985314e-02 5.7175418355362539e-01  5.1008323117655163e-01 8.7562378445460054e-02 5.6993100486312176e-01  5.0997981538317005e-01 8.7495036469793480e-02 5.6936536977727692e-01  5.0991015340256829e-01 8.7449644256008652e-02 5.6898412788693176e-01  5.0986327507119977e-01 8.7419061070713913e-02 5.6872744415503684e-01  5.0983567493128024e-01 8.7400957514375544e-02 5.6857626837253594e-01  5.0982236711222462e-01 8.7392112122983034e-02 5.6850336564897663e-01  5.0981860269282964e-01 8.7389483443994678e-02 5.6848275174585849e-01  5.0981473550072631e-01 8.7387056895877169e-02 5.6846153420059342e-01  5.0979695487687970e-01 8.7376153795008349e-02 5.6836393321716627e-01  5.0975911025443787e-01 8.7352890580450773e-02 5.6815612535966309e-01  5.0969688333728469e-01 8.7314695825856797e-02 5.6781423001397802e-01  5.0960393051540809e-01 8.7257837353940840e-02 5.6730307795691270e-01  5.0947447667986334e-01 8.7179075371710019e-02 5.6659039201936090e-01  5.0930133390546184e-01 8.7074512515140229e-02 5.6563574181441856e-01  5.0907130628430530e-01 8.6936787886830083e-02 5.6436510808989848e-01  5.0875023801048924e-01 8.6746248334636206e-02 5.6258789923362906e-01  5.0754473590686855e-01 8.6040971823766701e-02 5.5589268194128572e-01  5.0708451721772596e-01 8.5776346886830529e-02 5.5332745896841395e-01  5.0669265880789682e-01 8.5554326903802796e-02 5.5113739055118804e-01  5.0636330760158110e-01 8.5370660713657662e-02 5.4929203294254703e-01  5.0610262427731845e-01 8.5227566032089905e-02 5.4782819768320556e-01  5.0585543495925511e-01 8.5096248880635689e-02 5.4643454864032248e-01  5.0565632861504095e-01 8.4993772542230256e-02 5.4530763123830939e-01  5.0535933206465222e-01 8.4842568703480128e-02 5.4362401668789240e-01  5.0424311547899014e-01 8.4284071638989280e-02 5.3727971164642896e-01  5.0375888793058887e-01 8.4047625767135675e-02 5.3451781898236372e-01  5.0332733040396771e-01 8.3841216183426090e-02 5.3204939110353389e-01  5.0292469847041432e-01 8.3652888607888928e-02 5.2973991084009975e-01  5.0254074404891247e-01 8.3477395415277919e-02 5.2753151802419807e-01  5.0216711141059667e-01 8.3310387877864836e-02 5.2537700987512059e-01  5.0179133392850928e-01 8.3145911718075671e-02 5.2320503393830708e-01  5.0099191869893211e-01 8.2805363379868852e-02 5.1857070607641464e-01  5.0073652747065367e-01 8.2699073056695022e-02 5.1708643733295856e-01  5.0054463971290386e-01 8.2620347892486054e-02 5.1596961948620135e-01  5.0040518137003265e-01 8.2563922813979548e-02 5.1515693836219745e-01  5.0026241811561689e-01 8.2507702276546233e-02 5.1432337429634545e-01  5.0015793557881982e-01 8.2467736402256644e-02 5.1371216601196024e-01  5.0003286802839997e-01 8.2420445449169849e-02 5.1297997001630191e-01  4.9989442735428868e-01 8.2368647561076480e-02 5.1216887698778757e-01  4.9974970715024103e-01 8.2315082633338504e-02 5.1132033608502436e-01  4.9960149310956281e-01 8.2260806767839936e-02 5.1045062234169369e-01  4.9945265048068893e-01 8.2206887123344355e-02 5.0957651734514930e-01  4.9930642578920131e-01 8.2154506701275790e-02 5.0871709024662692e-01  4.9916656220736788e-01 8.2104976012647393e-02 5.0789437679515093e-01  4.9890658409545963e-01 8.2014701861530370e-02 5.0636303814354666e-01  4.9875315992652025e-01 8.1962531168236250e-02 5.0545804499286862e-01  4.9859291963827451e-01 8.1908769472110260e-02 5.0451198886117432e-01  4.9842792009584291e-01 8.1854181240280086e-02 5.0353690007111118e-01  4.9826012114841817e-01 8.1799436743313456e-02 5.0254432787916470e-01  4.9809084597768905e-01 8.1745009502492291e-02 5.0154204516902878e-01  4.9792059898557328e-01 8.1691084878550341e-02 5.0053300602283557e-01  4.9775007799531845e-01 8.1637896782965971e-02 4.9952133337480698e-01  4.9758004536811318e-01 8.1585682345913596e-02 4.9851155692184485e-01  4.9741052569288441e-01 8.1534457434670152e-02 4.9750381239502467e-01  4.9724184340901262e-01 8.1484306597303116e-02 4.9650005070436609e-01  4.9707445504317732e-01 8.1435350319076893e-02 4.9550301474056380e-01  4.9690783150423451e-01 8.1387437446481997e-02 4.9450954873258790e-01  4.9674298325245919e-01 8.1340868599684063e-02 4.9352567126721641e-01  4.9657857976681175e-01 8.1295224873602426e-02 4.9254349412623522e-01  4.9626041656427244e-01 8.1209126365409640e-02 4.9064008245575130e-01  4.9611058697100113e-01 8.1169635959238179e-02 4.8974248111534840e-01  4.9596255295490832e-01 8.1131275105699882e-02 4.8885486658364530e-01  4.9581510183760552e-01 8.1093768957660531e-02 4.8796991689575619e-01  4.9566736384407573e-01 8.1056850482479487e-02 4.8708245805926664e-01  4.9551625940205773e-01 8.1019755907190447e-02 4.8617396917026084e-01  4.9535470040896157e-01 8.0980780724334414e-02 4.8520177699179007e-01  4.9497134149117611e-01 8.0890421224578027e-02 4.8289231162173346e-01  4.9483951938535098e-01 8.0860031618048056e-02 4.8209734853870451e-01  4.9473137658106692e-01 8.0835450550718418e-02 4.8144475040051177e-01  4.9463887787561073e-01 8.0814716516623919e-02 4.8088620813898797e-01  4.9455856075058441e-01 8.0796945831702202e-02 4.8040095624016471e-01  4.9448902763106578e-01 8.0781743602547709e-02 4.7998065818241870e-01  4.9442973794978212e-01 8.0768918258230793e-02 4.7962213282950378e-01  4.9438127518106351e-01 8.0758533141554650e-02 4.7932897829558613e-01  4.9432287275045378e-01 8.0746188180432873e-02 4.7897552787721681e-01  4.9428662618361491e-01 8.0738621990800397e-02 4.7875606849048602e-01  4.9424428845797125e-01 8.0729830251722645e-02 4.7849968326484332e-01  4.9413782749305607e-01 8.0707838217033381e-02 4.7785486673033528e-01  4.9409677910727023e-01 8.0699387987292731e-02 4.7760620995942399e-01  4.9406214779071328e-01 8.0692269148857229e-02 4.7739641074271910e-01  4.9403195462146782e-01 8.0686066194784745e-02 4.7721349060638640e-01  4.9400537873042422e-01 8.0680602816785865e-02 4.7705248545564610e-01  4.9398164771147973e-01 8.0675713899190066e-02 4.7690872290174424e-01  4.9395994004331084e-01 8.0671222738786325e-02 4.7677723433633185e-01  4.9391798706778961e-01 8.0662450297674826e-02 4.7652320071100124e-01  4.9390630448056277e-01 8.0659968539991134e-02 4.7645249679135798e-01  4.9389796683210097e-01 8.0658173070199804e-02 4.7640205931415419e-01  4.9389182118891228e-01 8.0656827124035893e-02 4.7636490312103374e-01  4.9388725743682405e-01 8.0655806471737201e-02 4.7633733080013690e-01  4.9388388103823327e-01 8.0655031476511513e-02 4.7631695067423718e-01  4.9388141238321126e-01 8.0654446485390316e-02 4.7630206699066224e-01  4.9387963010958486e-01 8.0654007961708837e-02 4.7629133675633051e-01  4.9387836051306333e-01 8.0653681642657432e-02 4.7628370620025406e-01  4.9387746136343308e-01 8.0653440043714247e-02 4.7627831197540044e-01  4.9387683162158064e-01 8.0653263306737527e-02 4.7627454106987416e-01  4.9387638312707555e-01 8.0653134621622699e-02 4.7627185814578682e-01  4.9387606387221195e-01 8.0653043773326064e-02 4.7626994766620168e-01  4.9387586642017811e-01 8.0652988631439868e-02 4.7626876511272087e-01  4.9387637531369055e-01 8.0653074568747693e-02 4.7627186522523829e-01  4.9387833320454610e-01 8.0653427665379945e-02 4.7628377149840712e-01  4.9388167081127099e-01 8.0654028808911232e-02 4.7630406873921771e-01  4.9388641210135120e-01 8.0654882655215546e-02 4.7633290232091585e-01  4.9389268925586616e-01 8.0656012122917758e-02 4.7637107682344992e-01  4.9390733058944236e-01 8.0658648198053129e-02 4.7646011564870860e-01  4.9390257768797319e-01 8.0657764424293274e-02 4.7643123805349397e-01  4.9390046131788107e-01 8.0657362314080772e-02 4.7641838716078655e-01  4.9389922562989425e-01 8.0657125106360958e-02 4.7641088594106307e-01  4.9389850872237190e-01 8.0656987016904588e-02 4.7640653431816865e-01  4.9389857677466886e-01 8.0657000125308492e-02 4.7640694739829631e-01  4.9389951412987704e-01 8.0657181011262957e-02 4.7641263682164159e-01  4.9390085388138172e-01 8.0657442503003371e-02 4.7642076575080888e-01  4.9393591612750010e-01 8.0663890900280297e-02 4.7663386026223920e-01  4.9395210897420816e-01 8.0666859066436697e-02 4.7673228122801536e-01  4.9396896949062929e-01 8.0669958536311259e-02 4.7683475013558468e-01  4.9398698430722054e-01 8.0673282454506029e-02 4.7694422057740649e-01  4.9400642673114176e-01 8.0676884909939392e-02 4.7706234940030356e-01  4.9402748156104231e-01 8.0680803770003626e-02 4.7719025524750586e-01  4.9405046327097901e-01 8.0685101614274904e-02 4.7732984357592317e-01  4.9407592175572246e-01 8.0689885513986120e-02 4.7748444888086905e-01  4.9410511962393933e-01 8.0695397908921149e-02 4.7766173207155271e-01  4.9418223720962867e-01 8.0710058687251146e-02 4.7812985416911580e-01  4.9421333763786474e-01 8.0716012540617207e-02 4.7831859242579505e-01  4.9424167605771258e-01 8.0721463047857725e-02 4.7849053842131561e-01  4.9426816700857218e-01 8.0726582924315296e-02 4.7865124548785909e-01  4.9429331081683009e-01 8.0731465028175631e-02 4.7880375391145086e-01  4.9431720636445542e-01 8.0736125561193556e-02 4.7894866733459568e-01  4.9433990068658484e-01 8.0740570441900236e-02 4.7908627490676170e-01  4.9436136196869523e-01 8.0744790334666847e-02 4.7921638735005201e-01  4.9438150428135236e-01 8.0748765333580913e-02 4.7933848721956246e-01  4.9440012415668338e-01 8.0752452475415556e-02 4.7945134440691861e-01  4.9441695363082638e-01 8.0755795851429460e-02 4.7955333813604334e-01  4.9443144917348175e-01 8.0758684527008864e-02 4.7964117780744597e-01  4.9445179805766237e-01 8.0762761375870101e-02 4.7976446459125488e-01  4.9446612175145077e-01 8.0765646108511793e-02 4.7985123071369806e-01  4.9448304332305942e-01 8.0769062275245246e-02 4.7995372394568869e-01  4.9450317118296117e-01 8.0773133174915857e-02 4.8007562805739196e-01  4.9454536494442197e-01 8.0781669470744152e-02 4.8033116535171611e-01  4.9454910860687407e-01 8.0782422541822510e-02 4.8035384113897123e-01  4.9455031303650460e-01 8.0782663388450887e-02 4.8036113742247583e-01  4.9455033684502886e-01 8.0782668144743441e-02 4.8036128165185715e-01  4.9454978052489612e-01 8.0782558323296574e-02 4.8035791050337268e-01  4.9454990459859527e-01 8.0782588256994442e-02 4.8035865801257938e-01  4.9455238521296768e-01 8.0783097569357282e-02 4.8037367441608153e-01  4.9456500464070741e-01 8.0785672376779083e-02 4.8045007794138389e-01  4.9457024811778483e-01 8.0786740771882720e-02 4.8048182445952348e-01  4.9457374508065333e-01 8.0787452330708276e-02 4.8050299694461324e-01  4.9457576307430146e-01 8.0787862545618830e-02 4.8051521496809813e-01  4.9457640996691721e-01 8.0787994063950888e-02 4.8051913154982534e-01  4.9457599080796105e-01 8.0787909137779015e-02 4.8051659360843485e-01  4.9457480849178109e-01 8.0787669755716371e-02 4.8050943469522389e-01  4.9457331778820163e-01 8.0787370072134435e-02 4.8050040701238889e-01  4.9458305364752853e-01 8.0789386108306480e-02 4.8055933038079029e-01  4.9459212706694600e-01 8.0791251605458012e-02 4.8061425250887974e-01  4.9460010555300182e-01 8.0792892700537758e-02 4.8066254566745981e-01  4.9460684507863228e-01 8.0794280024934204e-02 4.8070333821983580e-01  4.9461199951562945e-01 8.0795341971136997e-02 4.8073453569152635e-01  4.9461716608470746e-01 8.0796409136200370e-02 4.8076580431043719e-01  4.9462103302696342e-01 8.0797210596629102e-02 4.8078920523156965e-01  4.9462585882