<?xml version="1.0"?>
<VTKFile type="UnstructuredGrid"  version="0.1"  >
<UnstructuredGrid>
<Piece  NumberOfPoints="7288" NumberOfCells="14083">
<Points>
<DataArray  type="Float64"  NumberOfComponents="3"  format="ascii">239.8 188 0  250.2 180 0  258.2 172.4 0  257 169.4 0  259.9 157.4 0  258.7 150.3 0  261 143.5 0  251.7 144.4 0  250 138.7 0  247 138.1 0  245.2 130.8 0  247.3 126.4 0  242.7 118.6 0  231.2 107.7 0  226 102.4 0  226.5 93.90000000000001 0  224.5 91.19999999999999 0  224.5 84.09999999999999 0  234.5 73.80000000000001 0  228.4 68.90000000000001 0  230 70 0  233.4 68 0  222.7 61.5 0  220.6 45.5 0  223.4 49.40000000000001 0  224 47 0  221.8 43.09999999999999 0  221 38.40000000000001 0  219.5 38.5 0  219.4 41.69999999999999 0  217.1 36.90000000000001 0  209.7 36 0  209.5 31.69999999999999 0  205.1 29.90000000000001 0  201.5 30.40000000000001 0  199.2 38.69999999999999 0  201.8 41.40000000000001 0  194.8 53.80000000000001 0  196.1 57.69999999999999 0  193 59 0  191.4 66.09999999999999 0  193.5 66.5 0  194.1 64.40000000000001 0  195.6 64.69999999999999 0  195.4 72.40000000000001 0  199.5 77.30000000000001 0  197.7 86.90000000000001 0  200.6 87.5 0  201.5 91 0  198 94.80000000000001 0  198.6 100 0  197.3 105.4 0  198 109.5 0  197 112.7 0  198.3 116.1 0  201.3 122 0  207.2 121 0  208.1 126.7 0  205.6 127.9 0  209.1 134.9 0  210.9 144.4 0  210.1 147.9 0  213 148.4 0  215.4 149.3 0  215.1 152.8 0  219.9 159.7 0  220.3 163.2 0  218.7 164.9 0  219.9 166.7 0  221.9 169.7 0  220 170.3 0  224.9 174.7 0  229.8 177.4 0  229.7 181 0  228 172.9 0  239 178 0  240.4 180 0  239 181.5 0  241.2 185.9 0  242.95 187.99 0  240.5875 187.9975 0  241.375 187.995 0  242.1625 187.9925 0  243.6090909090879 187.2636363636397 0  244.2681818181765 186.5372727272785 0  244.9272727272692 185.810909090913 0  245.5863636363531 185.0845454545571 0  246.245454545445 184.3581818181923 0  246.9045454545351 183.6318181818295 0  247.5636363636303 182.9054545454612 0  248.2227272727197 182.1790909090992 0  248.8818181818179 181.4527272727275 0  249.5409090909066 180.7263636363664 0  250.8666666666961 179.3666666666387 0  251.5333333334033 178.7333333332668 0  252.2000000000994 178.0999999999055 0  252.8666666668011 177.466666666539 0  253.5333333335083 176.8333333331671 0  254.2000000002044 176.1999999998058 0  254.8666666669005 175.5666666664445 0  255.5333333336077 174.9333333330727 0  256.2000000002685 174.2999999997449 0  256.8666666668457 173.6666666664966 0  257.5333333334283 173.033333333243 0  257.9000000000077 171.6500000000191 0  257.6000000000015 170.9000000000038 0  257.2999999999954 170.1499999999885 0  257.2230769230778 168.4769230769195 0  257.4461538461543 167.5538461538442 0  257.6692307692309 166.6307692307688 0  257.8923076923074 165.7076923076935 0  258.115384615384 164.7846153846181 0  258.3384615384605 163.8615384615427 0  258.5615384615395 162.9384615384572 0  258.784615384616 162.0153846153819 0  259.0076923076926 161.0923076923065 0  259.2307692307691 160.1692307692311 0  259.4538461538457 159.2461538461558 0  259.6769230769222 158.3230769230804 0  259.750000000001 156.512500000006 0  259.6000000000014 155.6250000000082 0  259.4500000000029 154.7375000000176 0  259.3000000000018 153.8500000000108 0  259.1500000000007 152.962500000004 0  259.0000000000004 152.0750000000026 0  258.849999999999 151.187499999994 0  258.9875000000052 149.4499999999846 0  259.275000000002 148.5999999999941 0  259.5624999999954 147.7500000000135 0  259.849999999995 146.900000000015 0  260.1374999999945 146.0500000000164 0  260.4249999999913 145.2000000000259 0  260.7124999999948 144.3500000000154 0  260.0700000000398 143.5899999999961 0  259.1400000000573 143.6799999999944 0  258.2100000000351 143.7699999999966 0  257.2800000000262 143.8599999999975 0  256.350000000011 143.9499999999989 0  255.4199999999881 144.0400000000011 0  254.4899999999726 144.1300000000026 0  253.5599999999944 144.2200000000005 0  252.6300000000009 144.3099999999999 0  251.4166666666658 143.4499999999971 0  251.1333333333388 142.5000000000182 0  250.8500000000015 141.5500000000051 0  250.5666666666612 140.5999999999818 0  250.2833333333342 139.6500000000029 0  249.2500000000005 138.5500000000001 0  248.5000000000011 138.4000000000002 0  247.7499999999995 138.2499999999999 0  246.7750000000005 137.1875000000023 0  246.5500000000021 136.2750000000085 0  246.3250000000036 135.3625000000147 0  246.1000000000042 134.450000000017 0  245.8750000000022 133.5375000000088 0  245.650000000003 132.6250000000124 0  245.4250000000046 131.7125000000187 0  245.619999999996 129.9200000000084 0  246.0399999999992 129.0400000000017 0  246.4599999999987 128.1600000000028 0  246.8800000000001 127.2799999999997 0  246.8399999999988 125.6199999999979 0  246.3799999999984 124.8399999999973 0  245.9199999999991 124.0599999999985 0  245.4600000000036 123.2800000000062 0  245.0000000000049 122.5000000000082 0  244.5400000000036 121.7200000000062 0  244.0800000000033 120.9400000000056 0  243.6200000000016 120.1600000000027 0  243.1600000000012 119.3800000000021 0  241.9812499999996 117.9187499999997 0  241.2625000000007 117.2375000000007 0  240.5437500000017 116.5562500000017 0  239.8250000000041 115.875000000004 0  239.1062500000066 115.1937500000063 0  238.3875000000076 114.5125000000072 0  237.6687500000087 113.8312500000082 0  236.9500000000083 113.1500000000079 0  236.231250000008 112.4687500000076 0  235.512500000009 111.7875000000085 0  234.7937500000045 111.1062500000043 0  234.0750000000042 110.4250000000039 0  233.3562500000066 109.7437500000062 0  232.6375000000021 109.062500000002 0  231.9187500000031 108.381250000003 0  230.5500000000004 107.0375000000004 0  229.9000000000021 106.3750000000021 0  229.2500000000038 105.7125000000039 0  228.6000000000041 105.0500000000042 0  227.9500000000018 104.3875000000018 0  227.2999999999952 103.7249999999951 0  226.6500000000024 103.0625000000024 0  226.0555555555555 101.4555555555556 0  226.1111111111111 100.5111111111111 0  226.1666666666667 99.56666666666668 0  226.2222222222222 98.62222222222223 0  226.2777777777778 97.67777777777778 0  226.3333333333333 96.73333333333335 0  226.3888888888889 95.78888888888889 0  226.4444444444445 94.84444444444446 0  226 93.22499999999999 0  225.5000000000026 92.55000000000358 0  225.0000000000026 91.87500000000358 0  224.5 90.31250000000068 0  224.5 89.4250000000097 0  224.5 88.53750000001317 0  224.5 87.65000000001388 0  224.5 86.76250000001457 0  224.5 85.87500000001248 0  224.5 84.9874999999993 0  225.1666666666659 83.41333333333409 0  225.8333333333319 82.72666666666818 0  226.4999999999978 82.04000000000228 0  227.1666666666649 81.35333333333514 0  227.8333333333301 80.66666666667 0  228.4999999999942 79.980000000006 0  229.1666666666601 79.2933333333401 0  229.8333333333316 78.60666666666847 0  230.4999999999975 77.92000000000257 0  231.1666666666644 77.23333333333572 0  231.8333333333295 76.54666666667057 0  232.4999999999972 75.86000000000287 0  233.1666666666681 75.17333333333181 0  233.8333333333368 74.48666666666306 0  233.7499999999995 73.16666666666629 0  233.0000000000018 72.53333333333488 0  232.2500000000014 71.90000000000116 0  231.5000000000009 71.26666666666743 0  230.7500000000005 70.63333333333372 0  229.233333333333 68.75000000000006 0  230.0666666666665 68.60000000000004 0  230.8999999999995 68.45000000000009 0  231.7333333333325 68.30000000000015 0  232.566666666667 68.14999999999995 0  232.5499999999897 68.50000000000607 0  231.7 69 0  230.8500000000103 69.49999999999393 0  227.8300000000008 68.16000000000106 0  227.2600000000064 67.42000000000837 0  226.6900000000077 66.68000000001001 0  226.1200000000024 65.94000000000314 0  225.5500000000108 65.20000000001409 0  224.9800000000098 64.46000000001268 0  224.4100000000007 63.72000000000098 0  223.8399999999971 62.97999999999621 0  223.2699999999993 62.23999999999915 0  222.753846153846 60.56923076923239 0  222.8076923076921 59.63846153846478 0  222.8615384615381 58.70769230769827 0  222.9153846153842 57.77692307693071 0  222.9692307692302 56.84615384616315 0  223.0230769230761 55.91538461539836 0  223.0769230769224 54.98461538462665 0  223.1307692307688 54.05384615385345 0  223.184615384615 53.12307692308312 0  223.2384615384611 52.19230769231556 0  223.2923076923071 51.26153846154906 0  223.3461538461533 50.33076923077847 0  222.8400000000024 48.62000000000327 0  222.2800000000047 47.84000000000661 0  221.7200000000005 47.06000000000071 0  221.1600000000003 46.28000000000039 0  221.4500000000116 45.87500000000512 0  222.3 46.25 0  223.1499999999884 46.62499999999488 0  223.5600000000055 46.22000000000981 0  223.1199999999987 45.43999999999767 0  222.6800000000061 44.66000000001075 0  222.2399999999969 43.8799999999944 0  221.6400000000004 42.16000000000253 0  221.4800000000009 41.22000000000548 0  221.3200000000014 40.28000000000801 0  221.1600000000009 39.34000000000556 0  220.25 38.45 0  219.4749999999999 39.30000000000165 0  219.45 40.09999999999999 0  219.425 40.90000000000112 0  219.0166666666641 40.89999999999463 0  218.6333333333375 40.10000000000875 0  218.2500000000016 39.30000000000339 0  217.8666666666635 38.49999999999351 0  217.483333333337 37.70000000000762 0  216.1750000000165 36.78750000000201 0  215.2500000000275 36.67500000000335 0  214.3250000000385 36.56250000000469 0  213.4000000000277 36.45000000000337 0  212.4750000000059 36.33750000000072 0  211.5499999999838 36.22499999999803 0  210.6249999999835 36.11249999999799 0  209.6600000000001 35.14000000000318 0  209.6200000000001 34.28000000000268 0  209.5800000000001 33.42000000000284 0  209.5399999999998 32.55999999999681 0  208.6200000000117 31.34000000000476 0  207.7400000000138 30.98000000000564 0  206.8600000000162 30.62000000000662 0  205.9800000000174 30.26000000000711 0  204.2000000000054 30.02499999999925 0  203.2999999999946 30.15000000000076 0  202.3999999999945 30.27500000000076 0  201.2444444444438 31.32222222222468 0  200.9888888888895 32.24444444
[...]
<PointData  Vectors="f_12"> 
<DataArray  type="Float64"  Name="f_12"  NumberOfComponents="3" format="ascii">6.0258090669144238e-01 2.6661252690247428e-01 8.5725929868518580e-01  5.9094322815100842e-01 2.2919553649991434e-01 8.5042111902948037e-01  5.7875920376965817e-01 1.9504119461944361e-01 8.3278485206824138e-01  5.7426678409465426e-01 1.8405281288453573e-01 8.2352297943203190e-01  5.5073534403455671e-01 1.3530315503179685e-01 7.5585288234512094e-01  5.4051919308610408e-01 1.1919774362773329e-01 7.1662652277952799e-01  5.3765690799663168e-01 1.1504048918228817e-01 7.0472081917035501e-01  5.2813568843522252e-01 1.0404388670092415e-01 6.6170028345594656e-01  5.1726669683403559e-01 9.3290704146048009e-02 6.0825766554465632e-01  5.1341395986331972e-01 9.0383036421515350e-02 5.8778878738082596e-01  5.0279467842517800e-01 8.3785282399839386e-02 5.2891904438395032e-01  5.0025158411757242e-01 8.2600539939924306e-02 5.1422366693969268e-01  4.9829484363662679e-01 8.1872090385418747e-02 5.0270815472639052e-01  4.9764456360673176e-01 8.1631257825724141e-02 4.9886989194145903e-01  4.9877749218148787e-01 8.1976430640605752e-02 5.0559402763859662e-01  4.9973675333765422e-01 8.2294872876588640e-02 5.1125195232377296e-01  4.9990455657026145e-01 8.2356191532242939e-02 5.1223553389301590e-01  4.9978949898210906e-01 8.2325950131778278e-02 5.1155058292530631e-01  4.9904376870130684e-01 8.2078919217925594e-02 5.0715187994529154e-01  4.9941411144663472e-01 8.2210311824174945e-02 5.0933104788571382e-01  4.9925229911438807e-01 8.2152399892566258e-02 5.0837965577052946e-01  4.9918886979616611e-01 8.2130241810280502e-02 5.0800624096273728e-01  5.0134414433544205e-01 8.2955337564174433e-02 5.2060709436877495e-01  5.0521828042710415e-01 8.4725884883874267e-02 5.4284490664657847e-01  5.0415489974172079e-01 8.4199237340057409e-02 5.3679966613552121e-01  5.0542003718275630e-01 8.4824821202205372e-02 5.4399114353619404e-01  5.0552790023413685e-01 8.4881688286535972e-02 5.4460018399629617e-01  5.0574425596979511e-01 8.4992060186889803e-02 5.4582369145361043e-01  5.0574431552148258e-01 8.4992105574524107e-02 5.4582402180153899e-01  5.0572850385554091e-01 8.4986314109862501e-02 5.4573334108482840e-01  5.0635866336055924e-01 8.5320902136681184e-02 5.4928473167738190e-01  5.0728729873708622e-01 8.5837530847075724e-02 5.5448564632412634e-01  5.0789730598656857e-01 8.6182590839998963e-02 5.5788936011983536e-01  5.0805008036400456e-01 8.6270504641362045e-02 5.5873917411170060e-01  5.0806485116701361e-01 8.6279063063638611e-02 5.5882129708936978e-01  5.0749437753113436e-01 8.5953445989730412e-02 5.5564427056885968e-01  5.0674678017268371e-01 8.5541879985878810e-02 5.5145665813479428e-01  5.0382083411277401e-01 8.4032844044039531e-02 5.3489408884716239e-01  5.0316361940728649e-01 8.3726497665927241e-02 5.3112658722534567e-01  5.0282079039061212e-01 8.3567846115960173e-02 5.2915836892134249e-01  5.0202097464832351e-01 8.3213621266571294e-02 5.2454550447491421e-01  5.0204059040482762e-01 8.3222406367737478e-02 5.2465869962293110e-01  5.0249746908464610e-01 8.3423616109886717e-02 5.2729562065984670e-01  5.0233750102224206e-01 8.3353322103394634e-02 5.2637246237872737e-01  5.0178614103645003e-01 8.3112476414935757e-02 5.2318728364628420e-01  5.0140118792263777e-01 8.2945451613026064e-02 5.2096012043812256e-01  5.0132784178386536e-01 8.2903317270668450e-02 5.2054356314163719e-01  5.0129181161309877e-01 8.2887146597122069e-02 5.2033553903177354e-01  5.0125578800352344e-01 8.2866830628012408e-02 5.2013099279330488e-01  5.0127524675266844e-01 8.2870579724777765e-02 5.2024747793884307e-01  5.0110685560180102e-01 8.2803535201860873e-02 5.1926788541811975e-01  5.0083236916531870e-01 8.2697408951816501e-02 5.1766748099863080e-01  5.0057683520118623e-01 8.2601523237392033e-02 5.1617404664393218e-01  5.0041605052171356e-01 8.2542087469354153e-02 5.1523313401318971e-01  5.0026994834545091e-01 8.2489300721360723e-02 5.1437682062542844e-01  5.0005883854518629e-01 8.2414880670392404e-02 5.1313764545896257e-01  4.9989289000267345e-01 8.2365434022401735e-02 5.1215765934817681e-01  5.0069783517938027e-01 8.2696369518372018e-02 5.1685125912081253e-01  5.0099194488205068e-01 8.2813281134423447e-02 5.1856704806299248e-01  5.0286350552357229e-01 8.3651820642546795e-02 5.2938016068266791e-01  5.0823259124312037e-01 8.6509786414430662e-02 5.5973557363243343e-01  5.0924960664114938e-01 8.7114760853510900e-02 5.6538455564012169e-01  5.1006617294704559e-01 8.7684602753157620e-02 5.6983909736440252e-01  5.1300783203876765e-01 8.9822526743378983e-02 5.8569982150199984e-01  5.1722472293161892e-01 9.3089868376841106e-02 6.0803131263997523e-01  5.3041964052748691e-01 1.0659984841415969e-01 6.7243262371515322e-01  5.3973969569607749e-01 1.1840865389611835e-01 7.1329719128475055e-01  5.4269885540956186e-01 1.2247987838173718e-01 7.2552152187885754e-01  5.4468325807944196e-01 1.2546119032531464e-01 7.3330482626807880e-01  5.4859270490364864e-01 1.3165685993036419e-01 7.4808532536962369e-01  5.4755771406995635e-01 1.2989783938421084e-01 7.4431792639338967e-01  5.5497611137315572e-01 1.4270904362520692e-01 7.7053083425762381e-01  5.7103842307915942e-01 1.7608861450499816e-01 8.1628662786625406e-01  5.7330708903360872e-01 1.8124259813223792e-01 8.2158530445596301e-01  5.5904159999079006e-01 1.5076305261739642e-01 7.8326607745200705e-01  5.8163638278096352e-01 2.0334503664648362e-01 8.3742577650266170e-01  5.9201892414826907e-01 2.3308120294272555e-01 8.5102307526441145e-01  5.9610387303676171e-01 2.4548252423093087e-01 8.5466852510038926e-01  6.0138132286940504e-01 2.6258820331325383e-01 8.5700569751705258e-01  6.0209228333803277e-01 2.6495514345296717e-01 8.5718119040061957e-01  6.0251892729131340e-01 2.6640269279952677e-01 8.5724961522735266e-01  6.0238415233844522e-01 2.6594565724854963e-01 8.5722881641164772e-01  6.0222903359810809e-01 2.6541891122818401e-01 8.5720449803016496e-01  6.0174995481793614e-01 2.6380073668385706e-01 8.5711138170918189e-01  6.0113844862692611e-01 2.6174681571763120e-01 8.5696563703685469e-01  6.0034888125172892e-01 2.5910990337802658e-01 8.5673744313321110e-01  5.9942459418781413e-01 2.5604604605179337e-01 8.5641083159864528e-01  5.9839034070500841e-01 2.5264762786108003e-01 8.5597009020425885e-01  5.9727760162764998e-01 2.4902784621675755e-01 8.5540496382219677e-01  5.9609097423824786e-01 2.4521127799098819e-01 8.5469956412105519e-01  5.9485556589285438e-01 2.4128561249806316e-01 8.5385416428943095e-01  5.9359242217744002e-01 2.3732430208505051e-01 8.5287029413766757e-01  5.9228967239688113e-01 2.3329687452144940e-01 8.5173011983301206e-01  5.8969336791058735e-01 2.2544205422683039e-01 8.4909150064942773e-01  5.8849199811281172e-01 2.2188639292708187e-01 8.4770642384845873e-01  5.8730332263037743e-01 2.1842100607081782e-01 8.4623298081422693e-01  5.8612728585289864e-01 2.1504356161546095e-01 8.4467688712539823e-01  5.8497161878870485e-01 2.1177430037774969e-01 8.4305270224478779e-01  5.8384469606315315e-01 2.0863281740188236e-01 8.4138078856207354e-01  5.8274579806673987e-01 2.0561440411995915e-01 8.3966747555807275e-01  5.8169301393508577e-01 2.0276361408220614e-01 8.3795130412862628e-01  5.8071300471296450e-01 2.0014625525372040e-01 8.3628834522264495e-01  5.7983909109442244e-01 1.9784231755952170e-01 8.3475360306250090e-01  5.7913831649958147e-01 1.9601729599930526e-01 8.3348650467101215e-01  5.7836365638909448e-01 1.9405030556649894e-01 8.3201973602320023e-01  5.7750284361405335e-01 1.9191417374876638e-01 8.3031603339104709e-01  5.7621491793547985e-01 1.8875685301464090e-01 8.2768093537009668e-01  5.7177657096699752e-01 1.7815595527708333e-01 8.1792815767450522e-01  5.6958848636108383e-01 1.7310273400626569e-01 8.1271768654547172e-01  5.6749769184312238e-01 1.6840138389820516e-01 8.0745924060411778e-01  5.6546929554203951e-01 1.6396162251743396e-01 8.0209851040977875e-01  5.6349930962415673e-01 1.5976469711667743e-01 7.9665086634861604e-01  5.6159085547577259e-01 1.5580661965563852e-01 7.9115040342032839e-01  5.5975004149992369e-01 1.5208914058445039e-01 7.8563974092721434e-01  5.5798161409978764e-01 1.4860924699012251e-01 7.8016097934156237e-01  5.5629673811711189e-01 1.4537839500279090e-01 7.7477223127416517e-01  5.5469686035471033e-01 1.4238695414850311e-01 7.6950593295099434e-01  5.5320409161875617e-01 1.3966201098122197e-01 7.6446429185249420e-01  5.5184362387859431e-01 1.3723573019192584e-01 7.5976228680197322e-01  5.4968067607081594e-01 1.3351150646155033e-01 7.5205343977359151e-01  5.4844607602689899e-01 1.3145776949176746e-01 7.4752730545989265e-01  5.4713774765682643e-01 1.2932671060857173e-01 7.4264471814056499e-01  5.4580416688710465e-01 1.2720057607409577e-01 7.3757869848351509e-01  5.4447146196491070e-01 1.2512127792582170e-01 7.3242518801491352e-01  5.4315745223698897e-01 1.2311359036038937e-01 7.2725626588166281e-01  5.4185885778708787e-01 1.2116877859493991e-01 7.2206405023011655e-01  5.3946196198142060e-01 1.1765609473034641e-01 7.1228446451760452e-01  5.3874003187828789e-01 1.1661462940409258e-01 7.0928673188697400e-01  5.3826188845741607e-01 1.1592702641169458e-01 7.0728411411451375e-01  5.3794550651158546e-01 1.1547207915381651e-01 7.0594984527195137e-01  5.3776276767669295e-01 1.1520644931545537e-01 7.0517467953224477e-01  5.3767706753427280e-01 1.1507799064504931e-01 7.0480888589346402e-01  5.3765459948287186e-01 1.1503995141984363e-01 7.0471165225157295e-01  5.3762875120042020e-01 1.1500601472874090e-01 7.0460169518398530e-01  5.3750770730874908e-01 1.1485519581959258e-01 7.0408785503978777e-01  5.3725407027757233e-01 1.1453754423851856e-01 7.0300657097372110e-01  5.3684408286163976e-01 1.1402616746886993e-01 7.0124877257523655e-01  5.3624429792426420e-01 1.1328484186192800e-01 6.9865682015867536e-01  5.3542892417409560e-01 1.1229142419102600e-01 6.9509728355264500e-01  5.3436901874112808e-01 1.1102654027280118e-01 6.9040918852579980e-01  5.3300593573620214e-01 1.0944138443636897e-01 6.8428244349342437e-01  5.3117200967687250e-01 1.0737085372121720e-01 6.7588246885202552e-01  5.2471317329210987e-01 1.0042715676241440e-01 6.4537116359351865e-01  5.2240840315553250e-01 9.8084171780408028e-02 6.3415216216875714e-01  5.2053984930049213e-01 9.6263267017818052e-02 6.2488535106259568e-01  5.1904005357191840e-01 9.4861570448827287e-02 6.1733197801762285e-01  5.1790258640448950e-01 9.3838294927556173e-02 6.1153480803528704e-01  5.1690706709392076e-01 9.3004124486135237e-02 6.0637274107554995e-01  5.1616526591581813e-01 9.2428342186869891e-02 6.0246101952786701e-01  5.1509065583588654e-01 9.1617571802772038e-02 5.9675353636434147e-01  5.1121932975475581e-01 8.8820508326913031e-02 5.7595447884752971e-01  5.0962730296879633e-01 8.7735559861641152e-02 5.6728083477278213e-01  5.0826747607665956e-01 8.6852377646516515e-02 5.5979624502237246e-01  5.0705144773063437e-01 8.6101939781768153e-02 5.5303904384086955e-01  5.0593963788215568e-01 8.5451100796844787e-02 5.4680668169473878e-01  5.0490036960863005e-01 8.4873244346395454e-02 5.4093555947007232e-01  5.0389383028631496e-01 8.4340494245965014e-02 5.3520987251921104e-01  5.0184261639994487e-01 8.3323487745534636e-02 5.2344314570139838e-01  5.0121048406597801e-01 8.3027293053232323e-02 5.1979233345129461e-01  5.0074881533914994e-01 8.2817766048825014e-02 5.1711643511733374e-01  5.0042417733936395e-01 8.2674625414856415e-02 5.1522930864267669e-01  5.0012206708636331e-01 8.2547665928043773e-02 5.1346617939390526e-01  4.9992716433679946e-01 8.2470253143842528e-02 5.1232414567541262e-01  4.9970544384755688e-01 8.2384224799264202e-02 5.1102297368549432e-01  4.9947160649271194e-01 8.2295308867468803e-02 5.0964887923326063e-01  4.9924047096334001e-01 8.2209115487474324e-02 5.0828892333616449e-01  4.9901653483723452e-01 8.2127083125015585e-02 5.0696975474439510e-01  4.9880454538051816e-01 8.2050691953106908e-02 5.0571958180278032e-01  4.9861001664511156e-01 8.1981681304590229e-02 5.0457119453975396e-01  4.9843663810168176e-01 8.1921042192638821e-02 5.0354671278418806e-01  4.9815642418641298e-01 8.1824961155384790e-02 5.0188883056084843e-01  4.9801680942681353e-01 8.1777955336863800e-02 5.0106183238732183e-01  4.9788768227481067e-01 8.1734838623199677e-02 5.0029653268781193e-01  4.9777092259694328e-01 8.1696076418400043e-02 4.9960422650612840e-01  4.9766847118381358e-01 8.1662131199089882e-02 4.9899660226923748e-01  4.9758211764968580e-01 8.1633441286292865e-02 4.9848442429828926e-01  4.9751191343701773e-01 8.1609890284188497e-02 4.9806813334125460e-01  4.9745841215358527e-01 8.1591547620143118e-02 4.9775112787121434e-01  4.9742250053435094e-01 8.1578602084772661e-02 4.9753876674782438e-01  4.9740350166227815e-01 8.1570788159743390e-02 4.9742707726253810e-01  4.9740139799902211e-01 8.1568064038665219e-02 4.9741598282989835e-01  4.9741662050727720e-01 8.1570550824750385e-02 4.9750804509773655e-01  4.9744776555972220e-01 8.1577833997378016e-02 4.9769488191849554e-01  4.9749728993632508e-01 8.1590691455194903e-02 4.9799105037330882e-01  4.9756250869669816e-01 8.1608365043516984e-02 4.9838048867315998e-01  4.9773542455803538e-01 8.1657161795651995e-02 4.9941128618766445e-01  4.9783832743277495e-01 8.1687043313265803e-02 5.0002386469125615e-01  4.9795328637012887e-01 8.1720970754092639e-02 5.0070760490209543e-01  4.9808087218972896e-01 8.1759246492791246e-02 5.0146570482852582e-01  4.9822131708627365e-01 8.1802018330660739e-02 5.0229940732163059e-01  4.9837636731754914e-01 8.1849923443355274e-02 5.0321889459273894e-01  4.9855265717385217e-01 8.1905144538090266e-02 5.0426328108382379e-01  4.9899170830368822e-01 8.2045159043891591e-02 5.0686074440990836e-01  4.9914641888585715e-01 8.2095375325722308e-02 5.0777473467019585e-01  4.9927553222871945e-01 8.2137805611641856e-02 5.0853675447684443e-01  4.9938732620726384e-01 8.2175009838447638e-02 5.0919592615225429e-01  4.9948500396127476e-01 8.2207913485300446e-02 5.0977135795243544e-01  4.9956938499096015e-01 8.2236671314491833e-02 5.1026805364707417e-01  4.9964064219103749e-01 8.2261230810467073e-02 5.1068718295532767e-01  4.9969809958615308e-01 8.2281252835275556e-02 5.1102490636787778e-01  4.9976721041936550e-01 8.2305781925044244e-02 5.1143068583590989e-01  4.9980919172231708e-01 8.2320968844888098e-02 5.1167690383826481e-01  4.9985492434635309e-01 8.2337715658044972e-02 5.1194493193854695e-01  4.9994194677431747e-01 8.2370557065235592e-02 5.1245404733187683e-01  4.9995932805710858e-01 8.2377765513841308e-02 5.1255515339426350e-01  4.9996326022696341e-01 8.2380241694869613e-02 5.1257728104905964e-01  4.9995582156958190e-01 8.2378752916586293e-02 5.1253260474054496e-01  4.9993639131735640e-01 8.2373094501124983e-02 5.1241745901590408e-01  4.9990646813089257e-01 8.2363846031303645e-02 5.1224058821860829e-01  4.9986222919416118e-01 8.2349698916634961e-02 5.1197948323612874e-01  4.9969534700922635e-01 8.2294686792085264e-02 5.1099571080176687e-01  4.9961430364521764e-01 8.2267642736712956e-02 5.1051812118448225e-01  4.9953823851414270e-01 8.2242248855161487e-02 5.1006979431949884e-01  4.9946625214363100e-01 8.2218252050764370e-02 5.0964539928678143e-01  4.9939855259068550e-01 8.2195739760132877e-02 5.0924616122993227e-01  4.9933556788867961e-01 8.2174856093438262e-02 5.0887461768600417e-01  4.9927773642761880e-01 8.2155738400535694e-02 5.0853337491180095e-01  4.9922546229517295e-01 8.2138506643704035e-02 5.0822484172200000e-01  4.9917915512245004e-01 8.2123281797619033e-02 5.0795146100391120e-01  4.9913914276803339e-01 8.2110154315344672e-02 5.0771519435725476e-01  4.9910578814809914e-01 8.2099230030193773e-02 5.0751820711853279e-01  4.9907936074354003e-01 8.2090582174721705e-02 5.0736211247543972e-01  4.9906015324532832e-01 8.2084297307587858e-02 5.0724865504965877e-01  4.9904849780450300e-01 8.2080482679975336e-02 5.0717980479215707e-01  4.9905005800030944e-01 8.2081097673810763e-02 5.0718894663553504e-01  4.9906752850626279e-01 8.2087181527778552e-02 5.0729188412277182e-01  4.9909659235955400e-01 8.2097339119480112e-02 5.0746309372902842e-01  4.9913719231927134e-01 8.2111585362376338e-02 5.0770219759836055e-01  4.9918920629592978e-01 8.2129940244201047e-02 5.0800841119405160e-01  4.9930572823998692e-01 8.2171532890426988e-02 5.0869384520179450e-01  4.9925268709819576e-01 8.2152681236199246e-02 5.0838187680067526e-01  4.9922376331551466e-01 8.2142476016379390e-02 5.0821167757772723e-01  4.9920525215258488e-01 8.2135975018174351e-02 5.0810270837994198e-01  4.9919413578125904e-01 8.2132082736292911e-02 5.0803725271130395e-01  4.9919519606993590e-01 8.2132453497039196e-02 5.0804349667709026e-01  4.9920991519870378e-01 8.2137607546345692e-02 5.0813016465205341e-01  4.9923247754537209e-01 8.2145520911374892e-02 5.0826298115942092e-01  4.9957170781898858e-01 8.2267265242643883e-02 5.1025697691579530e-01  4.9971233211890054e-01 8.2318602456567760e-02 5.1108254524489161e-01  4.9985657501314512e-01 8.2371848542911130e-02 5.1192858924475559e-01  5.0000972018147227e-01 8.2429062632666750e-02 5.1282595411650245e-01  5.0017462790115685e-01 8.2491471191846549e-02 5.1379119453622224e-01  5.0035346504891265e-01 8.2560075158266605e-02 5.1483673807350239e-01  5.0054924388781097e-01 8.2636257096302318e-02 5.1597985936951052e-01  5.0076680742217650e-01 8.2722164635934084e-02 5.1724842002590266e-01  5.0101734147744470e-01 8.2822530329749650e-02 5.1870711617062115e-01  5.0168006975245161e-01 8.3093911809844476e-02 5.2255715474287512e-01  5.0194997303299915e-01 8.3206885982108195e-02 5.2412149528546625e-01  5.0220000263681208e-01 8.3313063640321622e-02 5.2556834509138295e-01  5.0243821669050470e-01 8.3415741308666941e-02 5.2694458062579652e-01  5.0266917659611055e-01 8.3516708784157234e-02 5.2827684450759294e-01  5.0289347101597293e-01 8.3616105685895309e-02 5.2956872235448393e-01  5.0311124009187569e-01 8.3713854820769679e-02 5.3082122098776630e-01  5.0332176799151940e-01 8.3809497206291175e-02 5.3203041761045822e-01  5.0352371721875899e-01 8.3902282454152627e-02 5.3318883837220377e-01  5.0371445757644084e-01 8.3990859950198601e-02 5.3428161040482891e-01  5.0389061221860343e-01 8.4073504149932407e-02 5.3528964106370358e-01  5.0404568705891506e-01 8.4146988230515210e-02 5.3617605785019218e-01  5.0427228741486885e-01 8.4256272713895353e-02 5.3746882207454538e-01  5.0443812651246689e-01 8.4337619021936039e-02 5.3841307594191001e-01  5.0463718213143338e-01 8.4436059104774516e-02 5.3954516303613675e-01  5.0487640656079080e-01 8.4555126242243830e-02 5.4090423284696432e-01  5.0536734871522182e-01 8.4799557553545138e-02 5.4369143963415589e-01  5.0540608225597428e-01 8.4818323017853955e-02 5.4391166022811621e-01  5.0541717035237987e-01 8.4823518895089878e-02 5.4397480066288662e-01  5.0541738498850020e-01 8.4823618958332098e-02 5.4397602264720790e-01  5.0541363961250285e-01 8.4822066680709754e-02 5.4395455288838257e-01  5.0541962946231977e-01 8.4825617007787707e-02 5.4398806958608936e-01  5.0545481052929564e-01 8.4844024886904609e-02 5.4418683793464884e-01  5.0561533925904623e-01 8.4926527418495282e-02 5.4509471379757901e-01  5.0567779022242221e-01 8.4958439323434914e-02 5.4544786381310473e-01  5.0571646641391033e-01 8.4978059455483354e-02 5.4566657019376519e-01  5.0573731740435213e-01 8.4988570548825706e-02 5.4578446568065875e-01  5.0574389530245056e-01 8.4991887307556274e-02 5.4582164884634676e-01  5.0574021334353203e-01 8.4990074555088668e-02 5.4580081731895247e-01  5.0572994101343083e-01 8.4985041436123732e-02 5.4574267196457660e-01  5.0572054835874691e-01 8.4980805120041525e-02 5.4568928213629009e-01  5.0589177252852524e-01 8.5072821668171039e-02 5.4665422131371122e-01  5.0602498883220970e-01 8.5143284712921374e-02 5.4740539344626049e-01  5.0614142078973456e-01 8.5205012859044957e-02 5.4806156627620140e-01  5.0624032897857008e-01 8.5257626999898486e-02 5.4861867025498412e-01  5.0631670520626881e-01 8.5298404282754592e-02 5.4904863945042715e-01  5.0639699256132964e-01 8.5341697118745993e-02 5.4950016961480141e-01  5.0646082713806229e-01 8.5376538781223449e-02 5.4985874339226393e-01  5.0654154964