<?xml version="1.0"?>
<VTKFile type="UnstructuredGrid"  version="0.1"  >
<UnstructuredGrid>
<Piece  NumberOfPoints="7288" NumberOfCells="14083">
<Points>
<DataArray  type="Float64"  NumberOfComponents="3"  format="ascii">239.8 188 0  250.2 180 0  258.2 172.4 0  257 169.4 0  259.9 157.4 0  258.7 150.3 0  261 143.5 0  251.7 144.4 0  250 138.7 0  247 138.1 0  245.2 130.8 0  247.3 126.4 0  242.7 118.6 0  231.2 107.7 0  226 102.4 0  226.5 93.90000000000001 0  224.5 91.19999999999999 0  224.5 84.09999999999999 0  234.5 73.80000000000001 0  228.4 68.90000000000001 0  230 70 0  233.4 68 0  222.7 61.5 0  220.6 45.5 0  223.4 49.40000000000001 0  224 47 0  221.8 43.09999999999999 0  221 38.40000000000001 0  219.5 38.5 0  219.4 41.69999999999999 0  217.1 36.90000000000001 0  209.7 36 0  209.5 31.69999999999999 0  205.1 29.90000000000001 0  201.5 30.40000000000001 0  199.2 38.69999999999999 0  201.8 41.40000000000001 0  194.8 53.80000000000001 0  196.1 57.69999999999999 0  193 59 0  191.4 66.09999999999999 0  193.5 66.5 0  194.1 64.40000000000001 0  195.6 64.69999999999999 0  195.4 72.40000000000001 0  199.5 77.30000000000001 0  197.7 86.90000000000001 0  200.6 87.5 0  201.5 91 0  198 94.80000000000001 0  198.6 100 0  197.3 105.4 0  198 109.5 0  197 112.7 0  198.3 116.1 0  201.3 122 0  207.2 121 0  208.1 126.7 0  205.6 127.9 0  209.1 134.9 0  210.9 144.4 0  210.1 147.9 0  213 148.4 0  215.4 149.3 0  215.1 152.8 0  219.9 159.7 0  220.3 163.2 0  218.7 164.9 0  219.9 166.7 0  221.9 169.7 0  220 170.3 0  224.9 174.7 0  229.8 177.4 0  229.7 181 0  228 172.9 0  239 178 0  240.4 180 0  239 181.5 0  241.2 185.9 0  242.95 187.99 0  240.5875 187.9975 0  241.375 187.995 0  242.1625 187.9925 0  243.6090909090879 187.2636363636397 0  244.2681818181765 186.5372727272785 0  244.9272727272692 185.810909090913 0  245.5863636363531 185.0845454545571 0  246.245454545445 184.3581818181923 0  246.9045454545351 183.6318181818295 0  247.5636363636303 182.9054545454612 0  248.2227272727197 182.1790909090992 0  248.8818181818179 181.4527272727275 0  249.5409090909066 180.7263636363664 0  250.8666666666961 179.3666666666387 0  251.5333333334033 178.7333333332668 0  252.2000000000994 178.0999999999055 0  252.8666666668011 177.466666666539 0  253.5333333335083 176.8333333331671 0  254.2000000002044 176.1999999998058 0  254.8666666669005 175.5666666664445 0  255.5333333336077 174.9333333330727 0  256.2000000002685 174.2999999997449 0  256.8666666668457 173.6666666664966 0  257.5333333334283 173.033333333243 0  257.9000000000077 171.6500000000191 0  257.6000000000015 170.9000000000038 0  257.2999999999954 170.1499999999885 0  257.2230769230778 168.4769230769195 0  257.4461538461543 167.5538461538442 0  257.6692307692309 166.6307692307688 0  257.8923076923074 165.7076923076935 0  258.115384615384 164.7846153846181 0  258.3384615384605 163.8615384615427 0  258.5615384615395 162.9384615384572 0  258.784615384616 162.0153846153819 0  259.0076923076926 161.0923076923065 0  259.2307692307691 160.1692307692311 0  259.4538461538457 159.2461538461558 0  259.6769230769222 158.3230769230804 0  259.750000000001 156.512500000006 0  259.6000000000014 155.6250000000082 0  259.4500000000029 154.7375000000176 0  259.3000000000018 153.8500000000108 0  259.1500000000007 152.962500000004 0  259.0000000000004 152.0750000000026 0  258.849999999999 151.187499999994 0  258.9875000000052 149.4499999999846 0  259.275000000002 148.5999999999941 0  259.5624999999954 147.7500000000135 0  259.849999999995 146.900000000015 0  260.1374999999945 146.0500000000164 0  260.4249999999913 145.2000000000259 0  260.7124999999948 144.3500000000154 0  260.0700000000398 143.5899999999961 0  259.1400000000573 143.6799999999944 0  258.2100000000351 143.7699999999966 0  257.2800000000262 143.8599999999975 0  256.350000000011 143.9499999999989 0  255.4199999999881 144.0400000000011 0  254.4899999999726 144.1300000000026 0  253.5599999999944 144.2200000000005 0  252.6300000000009 144.3099999999999 0  251.4166666666658 143.4499999999971 0  251.1333333333388 142.5000000000182 0  250.8500000000015 141.5500000000051 0  250.5666666666612 140.5999999999818 0  250.2833333333342 139.6500000000029 0  249.2500000000005 138.5500000000001 0  248.5000000000011 138.4000000000002 0  247.7499999999995 138.2499999999999 0  246.7750000000005 137.1875000000023 0  246.5500000000021 136.2750000000085 0  246.3250000000036 135.3625000000147 0  246.1000000000042 134.450000000017 0  245.8750000000022 133.5375000000088 0  245.650000000003 132.6250000000124 0  245.4250000000046 131.7125000000187 0  245.619999999996 129.9200000000084 0  246.0399999999992 129.0400000000017 0  246.4599999999987 128.1600000000028 0  246.8800000000001 127.2799999999997 0  246.8399999999988 125.6199999999979 0  246.3799999999984 124.8399999999973 0  245.9199999999991 124.0599999999985 0  245.4600000000036 123.2800000000062 0  245.0000000000049 122.5000000000082 0  244.5400000000036 121.7200000000062 0  244.0800000000033 120.9400000000056 0  243.6200000000016 120.1600000000027 0  243.1600000000012 119.3800000000021 0  241.9812499999996 117.9187499999997 0  241.2625000000007 117.2375000000007 0  240.5437500000017 116.5562500000017 0  239.8250000000041 115.875000000004 0  239.1062500000066 115.1937500000063 0  238.3875000000076 114.5125000000072 0  237.6687500000087 113.8312500000082 0  236.9500000000083 113.1500000000079 0  236.231250000008 112.4687500000076 0  235.512500000009 111.7875000000085 0  234.7937500000045 111.1062500000043 0  234.0750000000042 110.4250000000039 0  233.3562500000066 109.7437500000062 0  232.6375000000021 109.062500000002 0  231.9187500000031 108.381250000003 0  230.5500000000004 107.0375000000004 0  229.9000000000021 106.3750000000021 0  229.2500000000038 105.7125000000039 0  228.6000000000041 105.0500000000042 0  227.9500000000018 104.3875000000018 0  227.2999999999952 103.7249999999951 0  226.6500000000024 103.0625000000024 0  226.0555555555555 101.4555555555556 0  226.1111111111111 100.5111111111111 0  226.1666666666667 99.56666666666668 0  226.2222222222222 98.62222222222223 0  226.2777777777778 97.67777777777778 0  226.3333333333333 96.73333333333335 0  226.3888888888889 95.78888888888889 0  226.4444444444445 94.84444444444446 0  226 93.22499999999999 0  225.5000000000026 92.55000000000358 0  225.0000000000026 91.87500000000358 0  224.5 90.31250000000068 0  224.5 89.4250000000097 0  224.5 88.53750000001317 0  224.5 87.65000000001388 0  224.5 86.76250000001457 0  224.5 85.87500000001248 0  224.5 84.9874999999993 0  225.1666666666659 83.41333333333409 0  225.8333333333319 82.72666666666818 0  226.4999999999978 82.04000000000228 0  227.1666666666649 81.35333333333514 0  227.8333333333301 80.66666666667 0  228.4999999999942 79.980000000006 0  229.1666666666601 79.2933333333401 0  229.8333333333316 78.60666666666847 0  230.4999999999975 77.92000000000257 0  231.1666666666644 77.23333333333572 0  231.8333333333295 76.54666666667057 0  232.4999999999972 75.86000000000287 0  233.1666666666681 75.17333333333181 0  233.8333333333368 74.48666666666306 0  233.7499999999995 73.16666666666629 0  233.0000000000018 72.53333333333488 0  232.2500000000014 71.90000000000116 0  231.5000000000009 71.26666666666743 0  230.7500000000005 70.63333333333372 0  229.233333333333 68.75000000000006 0  230.0666666666665 68.60000000000004 0  230.8999999999995 68.45000000000009 0  231.7333333333325 68.30000000000015 0  232.566666666667 68.14999999999995 0  232.5499999999897 68.50000000000607 0  231.7 69 0  230.8500000000103 69.49999999999393 0  227.8300000000008 68.16000000000106 0  227.2600000000064 67.42000000000837 0  226.6900000000077 66.68000000001001 0  226.1200000000024 65.94000000000314 0  225.5500000000108 65.20000000001409 0  224.9800000000098 64.46000000001268 0  224.4100000000007 63.72000000000098 0  223.8399999999971 62.97999999999621 0  223.2699999999993 62.23999999999915 0  222.753846153846 60.56923076923239 0  222.8076923076921 59.63846153846478 0  222.8615384615381 58.70769230769827 0  222.9153846153842 57.77692307693071 0  222.9692307692302 56.84615384616315 0  223.0230769230761 55.91538461539836 0  223.0769230769224 54.98461538462665 0  223.1307692307688 54.05384615385345 0  223.184615384615 53.12307692308312 0  223.2384615384611 52.19230769231556 0  223.2923076923071 51.26153846154906 0  223.3461538461533 50.33076923077847 0  222.8400000000024 48.62000000000327 0  222.2800000000047 47.84000000000661 0  221.7200000000005 47.06000000000071 0  221.1600000000003 46.28000000000039 0  221.4500000000116 45.87500000000512 0  222.3 46.25 0  223.1499999999884 46.62499999999488 0  223.5600000000055 46.22000000000981 0  223.1199999999987 45.43999999999767 0  222.6800000000061 44.66000000001075 0  222.2399999999969 43.8799999999944 0  221.6400000000004 42.16000000000253 0  221.4800000000009 41.22000000000548 0  221.3200000000014 40.28000000000801 0  221.1600000000009 39.34000000000556 0  220.25 38.45 0  219.4749999999999 39.30000000000165 0  219.45 40.09999999999999 0  219.425 40.90000000000112 0  219.0166666666641 40.89999999999463 0  218.6333333333375 40.10000000000875 0  218.2500000000016 39.30000000000339 0  217.8666666666635 38.49999999999351 0  217.483333333337 37.70000000000762 0  216.1750000000165 36.78750000000201 0  215.2500000000275 36.67500000000335 0  214.3250000000385 36.56250000000469 0  213.4000000000277 36.45000000000337 0  212.4750000000059 36.33750000000072 0  211.5499999999838 36.22499999999803 0  210.6249999999835 36.11249999999799 0  209.6600000000001 35.14000000000318 0  209.6200000000001 34.28000000000268 0  209.5800000000001 33.42000000000284 0  209.5399999999998 32.55999999999681 0  208.6200000000117 31.34000000000476 0  207.7400000000138 30.98000000000564 0  206.8600000000162 30.62000000000662 0  205.9800000000174 30.26000000000711 0  204.2000000000054 30.02499999999925 0  203.2999999999946 30.15000000000076 0  202.3999999999945 30.27500000000076 0  201.2444444444438 31.32222222222468 0  200.9888888888895 32.24444444
[...]
<PointData  Vectors="f_12"> 
<DataArray  type="Float64"  Name="f_12"  NumberOfComponents="3" format="ascii">1.2167216721672152e-02 1.6437872892347580e-02 6.8693255512321588e-03  1.2167216721672152e-02 1.6437872892347587e-02 6.8693255512321545e-03  1.2167216721672152e-02 1.6437872892347584e-02 6.8693255512321562e-03  1.2167216721672144e-02 1.6437872892347560e-02 6.8693255512321510e-03  1.2167216721672154e-02 1.6437872892347580e-02 6.8693255512321579e-03  1.2167216721672152e-02 1.6437872892347587e-02 6.8693255512321588e-03  1.2167216721672151e-02 1.6437872892347580e-02 6.8693255512321571e-03  1.2167216721672149e-02 1.6437872892347587e-02 6.8693255512321571e-03  1.2167216721672156e-02 1.6437872892347584e-02 6.8693255512321579e-03  1.2167216721672156e-02 1.6437872892347574e-02 6.8693255512321571e-03  1.2167216721672152e-02 1.6437872892347584e-02 6.8693255512321536e-03  1.2167216721672152e-02 1.6437872892347577e-02 6.8693255512321588e-03  1.2167216721642910e-02 1.6437872901720389e-02 6.8693255512350627e-03  2.3044302757315336e-03 3.7982618445026234e-01 3.9528394435167791e-01  3.9334695649051211e-03 2.7101979036463120e-01 4.9020635890063441e-01  3.0631249370275033e-03 1.6487889973306635e-01 6.1848807766829184e-01  2.5986264584438364e-03 2.4695279394310543e-01 2.8755411158556032e-01  2.1184667736017376e-03 5.8482330492399329e-02 5.1375509864448032e-01  2.4450460366728082e-03 2.8399105438417382e-01 5.4549794440467514e-01  3.0134157556576235e-03 3.9327874372753108e-01 5.8965767350186160e-01  4.0312281306863424e-03 2.6608062902142904e-01 5.9772035494165965e-01  2.9634004035996205e-03 4.9887464741606863e-01 4.0988875735153901e-01  3.8940642838011376e-03 3.3460036688835110e-01 4.4084131764987106e-01  3.5443501084727845e-03 2.8582064135548751e-01 4.7856269135260515e-01  3.0167550876702108e-03 2.1660701300337101e-01 5.5945485500497227e-01  4.6536539332904274e-03 2.2753231893206452e-02 3.7101997558201832e-01  4.6645239168161138e-03 1.0383785292207834e-01 4.7923788537567724e-01  4.5629924019978769e-03 3.5637288604246070e-01 4.0937543031382834e-01  4.3886377962528735e-03 3.3779726611947380e-01 4.2753272878080129e-01  2.8512558291867544e-03 2.4179917570448681e-01 3.4892707472249235e-01  3.9564343563350353e-03 3.0865614623763604e-01 6.1338596275506152e-01  3.9293569885326465e-03 2.6486719845139128e-01 4.5596803823067389e-01  3.2751563171346770e-03 3.8117072921834083e-01 5.6767032140705365e-01  4.5727154326181442e-03 1.2387439262063156e-01 5.3687170834148679e-01  4.0965948340817475e-03 3.3992777061433416e-01 2.3909718569921284e-01  1.3959675486142588e-03 3.1725042583922225e-01 6.3781422465769178e-01  3.2239989293245965e-03 2.9417553053325307e-01 4.1688762298075188e-01  1.3809792108253431e-03 6.4982503392850444e-02 5.4543883982131025e-01  2.7008772957295164e-03 3.3498196272467118e-01 4.9911122086648185e-01  3.1483975101324830e-03 3.4895541141310110e-01 5.0929565201036497e-01  3.5727004610419349e-03 6.8970629989150906e-02 3.3279746523241788e-01  3.0218869735093795e-03 4.2837573344495100e-01 4.9706830451538953e-01  3.8268295515712977e-03 2.9273682341117296e-01 4.5111121905882012e-01  2.8493412240814474e-03 1.7689132205631777e-01 5.1048752233846706e-01  2.4841670519791964e-03 3.1049965602701513e-01 5.6985420603906611e-01  2.4599972617298615e-03 3.5813821037167620e-01 4.8160053740116310e-01  2.1441203501315347e-03 2.5376375196900491e-01 5.4235208721299821e-01  1.2425065034714028e-03 1.4352358281566269e-01 6.1041432706868992e-01  3.5597399540645770e-03 2.4845818150603541e-01 4.7136089634032569e-01  3.2313679494189512e-03 2.9493230480393201e-01 4.4719421660767922e-01  1.5714087256262336e-03 2.7005681867882908e-01 4.8725200537313212e-01  3.5633637891195010e-03 3.5589673892569423e-01 5.2429345176099906e-01  5.1428502024074918e-03 3.2269066092932047e-01 4.6793131581596387e-01  1.1964436223595188e-02 2.2880745568372662e-02 1.0754907511893112e-02  1.2166829941370937e-02 1.6472337484591672e-02 6.8714648378532380e-03  1.2167216719330194e-02 1.6437873930323966e-02 6.8693255519551430e-03  1.2167216715275292e-02 1.6437874812467564e-02 6.8693255551043678e-03  1.2167216721672126e-02 1.6437872892372959e-02 6.8693255512321510e-03  1.2167216721672151e-02 1.6437872892347688e-02 6.8693255512321571e-03  1.2167216721672151e-02 1.6437872892347577e-02 6.8693255512321562e-03  1.2167216721672154e-02 1.6437872892347584e-02 6.8693255512321588e-03  1.2167216721672152e-02 1.6437872892347584e-02 6.8693255512321571e-03  1.2167216721672152e-02 1.6437872892347584e-02 6.8693255512321553e-03  1.2167216721672147e-02 1.6437872892347584e-02 6.8693255512321553e-03  1.2167216721672152e-02 1.6437872892347580e-02 6.8693255512321571e-03  1.2167216721672137e-02 1.6437872892347577e-02 6.8693255512321579e-03  1.2167216721672149e-02 1.6437872892347584e-02 6.8693255512321562e-03  1.2167216721672152e-02 1.6437872892347587e-02 6.8693255512321588e-03  1.2167216721672152e-02 1.6437872892347577e-02 6.8693255512321597e-03  1.2167216721672156e-02 1.6437872892347584e-02 6.8693255512321605e-03  1.2167216721672154e-02 1.6437872892347580e-02 6.8693255512321597e-03  1.2167216721672151e-02 1.6437872892347584e-02 6.8693255512321545e-03  1.2167216721672152e-02 1.6437872892347580e-02 6.8693255512321588e-03  1.2167216721672152e-02 1.6437872892347584e-02 6.8693255512321588e-03  1.2167216721672142e-02 1.6437872892347580e-02 6.8693255512321597e-03  1.2167216721672163e-02 1.6437872892347584e-02 6.8693255512321588e-03  1.2167216721672154e-02 1.6437872892347580e-02 6.8693255512321545e-03  1.2167216721672152e-02 1.6437872892347580e-02 6.8693255512321562e-03  1.2167216721672152e-02 1.6437872892347587e-02 6.8693255512321553e-03  1.2167216721672152e-02 1.6437872892347580e-02 6.8693255512321579e-03  1.2167216721672154e-02 1.6437872892347587e-02 6.8693255512321597e-03  1.2167216721672154e-02 1.6437872892347587e-02 6.8693255512321605e-03  1.2167216721672158e-02 1.6437872892347591e-02 6.8693255512321623e-03  1.2167216721672154e-02 1.6437872892347580e-02 6.8693255512321597e-03  1.2167216721672152e-02 1.6437872892347584e-02 6.8693255512321597e-03  1.2167216721672154e-02 1.6437872892347584e-02 6.8693255512321597e-03  1.2167216721672152e-02 1.6437872892347584e-02 6.8693255512321597e-03  1.2167216721672152e-02 1.6437872892347580e-02 6.8693255512321588e-03  1.2167216721672154e-02 1.6437872892347580e-02 6.8693255512321588e-03  1.2167216721672156e-02 1.6437872892347584e-02 6.8693255512321597e-03  1.2167216721672156e-02 1.6437872892347577e-02 6.8693255512321579e-03  1.2167216721672154e-02 1.6437872892347587e-02 6.8693255512321597e-03  1.2167216721672158e-02 1.6437872892347591e-02 6.8693255512321640e-03  1.2167216721672158e-02 1.6437872892347580e-02 6.8693255512321597e-03  1.2167216721672154e-02 1.6437872892347584e-02 6.8693255512321597e-03  1.2167216721672156e-02 1.6437872892347587e-02 6.8693255512321605e-03  1.2167216721672156e-02 1.6437872892347584e-02 6.8693255512321605e-03  1.2167216721672159e-02 1.6437872892347591e-02 6.8693255512321623e-03  1.2167216721672156e-02 1.6437872892347591e-02 6.8693255512321614e-03  1.2167216721672159e-02 1.6437872892347591e-02 6.8693255512321597e-03  1.2167216721672159e-02 1.6437872892347587e-02 6.8693255512321597e-03  1.2167216721672158e-02 1.6437872892347591e-02 6.8693255512321579e-03  1.2167216721672159e-02 1.6437872892347584e-02 6.8693255512321597e-03  1.2167216721672161e-02 1.6437872892347584e-02 6.8693255512321614e-03  1.2167216721672154e-02 1.6437872892347587e-02 6.8693255512321597e-03  1.2167216721672156e-02 1.6437872892347587e-02 6.8693255512321588e-03  1.2167216721672163e-02 1.6437872892347594e-02 6.8693255512321623e-03  1.2167216721672156e-02 1.6437872892347587e-02 6.8693255512321588e-03  1.2167216721672156e-02 1.6437872892347584e-02 6.8693255512321605e-03  1.2167216721672158e-02 1.6437872892347584e-02 6.8693255512321605e-03  1.2167216721672163e-02 1.6437872892347584e-02 6.8693255512321605e-03  1.2167216721672156e-02 1.6437872892347591e-02 6.8693255512321579e-03  1.2167216721672154e-02 1.6437872892347584e-02 6.8693255512321597e-03  1.2167216721672154e-02 1.6437872892347584e-02 6.8693255512321597e-03  1.2167216721672156e-02 1.6437872892347591e-02 6.8693255512321588e-03  1.2167216721672156e-02 1.6437872892347591e-02 6.8693255512321605e-03  1.2167216721672159e-02 1.6437872892347591e-02 6.8693255512321597e-03  1.2167216721672158e-02 1.6437872892347587e-02 6.8693255512321588e-03  1.2167216721672165e-02 1.6437872892347587e-02 6.8693255512321605e-03  1.2167216721672159e-02 1.6437872892347591e-02 6.8693255512321597e-03  1.2167216721672159e-02 1.6437872892347587e-02 6.8693255512321605e-03  1.2167216721672151e-02 1.6437872892347587e-02 6.8693255512321605e-03  1.2167216721672154e-02 1.6437872892347591e-02 6.8693255512321597e-03  1.2167216721672152e-02 1.6437872892347587e-02 6.8693255512321605e-03  1.2167216721672156e-02 1.6437872892347591e-02 6.8693255512321588e-03  1.2167216721672158e-02 1.6437872892347598e-02 6.8693255512321605e-03  1.2167216721672151e-02 1.6437872892347584e-02 6.8693255512321605e-03  1.2167216721672158e-02 1.6437872892347584e-02 6.8693255512321588e-03  1.2167216721672156e-02 1.6437872892347584e-02 6.8693255512321597e-03  1.2167216721672151e-02 1.6437872892347580e-02 6.8693255512321605e-03  1.2167216721672154e-02 1.6437872892347591e-02 6.8693255512321597e-03  1.2167216721672158e-02 1.6437872892347587e-02 6.8693255512321597e-03  1.2167216721672161e-02 1.6437872892347591e-02 6.8693255512321597e-03  1.2167216721672159e-02 1.6437872892347591e-02 6.8693255512321623e-03  1.2167216721672158e-02 1.6437872892347591e-02 6.8693255512321597e-03  1.2167216721672156e-02 1.6437872892347591e-02 6.8693255512321562e-03  1.2167216721672159e-02 1.6437872892347584e-02 6.8693255512321588e-03  1.2167216721672156e-02 1.6437872892347587e-02 6.8693255512321597e-03  1.2167216721672161e-02 1.6437872892347587e-02 6.8693255512321597e-03  1.2167216721672158e-02 1.6437872892347584e-02 6.8693255512321605e-03  1.2167216721672154e-02 1.6437872892347591e-02 6.8693255512321614e-03  1.2167216721672159e-02 1.6437872892347598e-02 6.8693255512321623e-03  1.2167216721672156e-02 1.6437872892347591e-02 6.8693255512321588e-03  1.2167216721672149e-02 1.6437872892347584e-02 6.8693255512321571e-03  1.2167216721672156e-02 1.6437872892347587e-02 6.8693255512321605e-03  1.2167216721672154e-02 1.6437872892347587e-02 6.8693255512321588e-03  1.2167216721672159e-02 1.6437872892347580e-02 6.8693255512321623e-03  1.2167216721672159e-02 1.6437872892347594e-02 6.8693255512321623e-03  1.2167216721672158e-02 1.6437872892347594e-02 6.8693255512321605e-03  1.2167216721672159e-02 1.6437872892347587e-02 6.8693255512321614e-03  1.2167216721672159e-02 1.6437872892347587e-02 6.8693255512321588e-03  1.2167216721672158e-02 1.6437872892347584e-02 6.8693255512321605e-03  1.2167216721672158e-02 1.6437872892347587e-02 6.8693255512321597e-03  1.2167216721672158e-02 1.6437872892347591e-02 6.8693255512321605e-03  1.2167216721672156e-02 1.6437872892347580e-02 6.8693255512321597e-03  1.2167216721672163e-02 1.6437872892347584e-02 6.8693255512321623e-03  1.2167216721672163e-02 1.6437872892347587e-02 6.8693255512321640e-03  1.2167216721672156e-02 1.6437872892347587e-02 6.8693255512321597e-03  1.2167216721672161e-02 1.6437872892347587e-02 6.8693255512321597e-03  1.2167216721672156e-02 1.6437872892347584e-02 6.8693255512321579e-03  1.2167216721672159e-02 1.6437872892347584e-02 6.8693255512321588e-03  1.2167216721672156e-02 1.6437872892347584e-02 6.8693255512321588e-03  1.2167216721672163e-02 1.6437872892347605e-02 6.8693255512321579e-03  1.2167216721672158e-02 1.6437872892347691e-02 6.8693255512321597e-03  1.2167216721672156e-02 1.6437872892348181e-02 6.8693255512321588e-03  1.2167216721672151e-02 1.6437872892350880e-02 6.8693255512321588e-03  1.2167216721672133e-02 1.6437872892365517e-02 6.8693255512321588e-03  1.2167216721671979e-02 1.6437872892441745e-02 6.8693255512321657e-03  1.2167216721671105e-02 1.6437872892818613e-02 6.8693255512322221e-03  1.2167216721666310e-02 1.6437872894556910e-02 6.8693255512326116e-03  1.2167216721423188e-02 1.6437872953734806e-02 6.8693255512754610e-03  1.2167216719225707e-02 1.6437873350675841e-02 6.8693255519998763e-03  1.2167216699674426e-02 1.6437876096719855e-02 6.8693255628659109e-03  1.2167216492529803e-02 1.6437897440470941e-02 6.8693257964410111e-03  1.2167214510405944e-02 1.6438052362526941e-02 6.8693297581896981e-03  1.2167195757995056e-02 1.6439165156404752e-02 6.8693948721690540e-03  1.2167013580586264e-02 1.6447348390739597e-02 6.8704872124250018e-03  1.2165224428629879e-02 1.6508149429079383e-02 6.8887053756543550e-03  1.2148491419397641e-02 1.6945936546249568e-02 7.1714504504609006e-03  1.1933021191652604e-02 2.0533512995920909e-02 1.4793596367618175e-02  9.8230639224888526e-03 4.6333780088646415e-02 1.3127216689352267e-01  9.8372312843724198e-03 1.4624326910308177e-01 1.0345104506330835e-01  4.1188720886917961e-03 2.9590148816872741e-01 6.7539313207380913e-01  3.9874956243896057e-03 2.8609740767318736e-01 5.3456705123958981e-01  4.3702456867929637e-03 4.6435998530454919e-01 4.8650093715741033e-01  2.7215027277022732e-03 2.1753240755958453e-01 4.7930601949691232e-01  3.2562585673821466e-03 3.1546069873932575e-01 3.0497640446898916e-01  3.1294872226178844e-03 2.5962280957540140e-01 3.8995705710610346e-01  2.7761729940362924e-03 3.7069744364901075e-01 6.6152131312005624e-01  2.5576273934215217e-03 4.2087174215917700e-01 5.3471398558732974e-01  3.0126507857005948e-03 2.8808102435720567e-01 5.1143904662258155e-01  3.6755554620112704e-03 4.2495569471728956e-01 4.5507810317604841e-01  1.8774259462446437e-03 7.9089545059560076e-02 5.2254690037154650e-01  2.0751327812931907e-03 1.3456965336820412e-01 4.7331923751848276e-01  1.6959921570012691e-03 2.6516147325391731e-01 4.3400357568744230e-01  2.3979770125086225e-03 1.9149548179730408e-01 5.0309322638524911e-01  3.0712308344303086e-03 3.2551010145527520e-01 5.8266486172894627e-01  1.3322829781197087e-03 1.5878440024510462e-01 5.3118345967505642e-01  1.7404891838494333e-03 8.3016484136237426e-02 6.0608519378654313e-01  1.5948222605911800e-03 3.0615381625387539e-01 6.1604329009680270e-01  3.7455002064315924e-03 3.8590174176723163e-01 5.2836846364715606e-01  3.2762209739006947e-03 1.5349884778393977e-01 5.2345692856897363e-01  3.5944558174100033e-03 2.0186490878844640e-01 3.9533596878831528e-01  4.0318302593652898e-03 7.3134530534055012e-02 5.4664256411857348e-01  3.2903014120347828e-03 1.2590898371879092e-01 5.7743761769571267e-01  2.4667136884504843e-03 2.3151221545373502e-01 4.9489514818610897e-01  1.8845708577148240e-03 2.7827273793339641e-01 4.5455754165346968e-01  4.0473090209010082e-03 2.1640437928097944e-01 4.1358194996864028e-01  4.0583434462643552e-03 5.1407007229353274e-01 3.9130228037805848e-01  3.4967402632022971e-03 2.2731946566951139e-01 3.7374325853443541e-01  3.4009987254084478e-03 2.3758983488140101e-01 5.5224725958536702e-01  2.1974912353409453e-03 1.6177034745182720e-01 6.4479824605947855e-01  3.3573733106663419e-03 3.2607147755556865e-01 6.6623622144834571e-01  3.3433805713747396e-03 1.2642869840077173e-01 6.0748445394649131e-01  4.2499998516816193e-03 1.7432117273980025e-01 4.5221221009527840e-01  3.0738405078554417e-03 5.6184922400247216e-02 5.2421186158556665e-01  3.2034605643182059e-03 3.3772430877586612e-01 4.2263938565977122e-01  3.1481564135788045e-03 2.7156405808343298e-01 5.5919194688875151e-01  3.2557197214284936e-03 2.4658709208933469e-01 5.5951065067899930e-01  4.8369516974007473e-03 3.3785990268804467e-01 3.7033106774158342e-01  2.2753023049091659e-03 3.1622239275173147e-01 4.8813143332979081e-01  1.9686395711555182e-03 2.4246041694244364e-01 5.3384638141761942e-01  2.4093053313404811e-03 2.6744860566222711e-01 5.1409650494958792e-01  2.3371999488316889e-03 1.5842444393574767e-01 6.3149632790993404e-01  2.5154749413744924e-03 1.7376421970972122e-01 5.3913226298853134e-01  3.3865989164121135e-03 1.4860009749425740e-01 6.4954284206051482e-01  2.4149151301682500e-03 2.4078595094815264e-01 5.5805475685450834e-01  4.0871028851884803e-03 3.0383275945349231e-01 4.5998947338901552e-01  1.9125243106021305e-03 4.0935650035247911e-01 5.5713167183736290e-01  5.1054297087205977e-03 4.6162125016616878e-01 4.1056448135854956e-01  3.4641048042358294e-03 3.0759878817872632e-01 5.0501969416471604e-01  3.4096583156899081e-03 2.2067440325503770e-01 3.9920782249371511e-01  3.9978602142881183e-03 2.6599222023714636e-01 3.4422738460736457e-01  5.7470544039213596e-03 4.9324406724012515e-01 1.8229494854274386e-01  1.7547497514051533e-03 2.1484614969977511e-01 4.3814566226755497e-01  3.5795184650546309e-03 4.7259853610559077e-01 3.5211601878743959e-01  3.2772267343616004e-03 4.5410876718235443e-01 4.4973366748401916e-01  1.7505140490326819e-03 3.6103555098999707e-01 4.7631056218629225e-01  4.0294458423287818e-03 2.1150288299246298e-01 5.5498758149434169e-01  3.1723353656676347e-03 2.9071162703050135e-01 7.2796500399349973e-01  4.0709420909779640e-03 9.0316104323256249e-02 4.8852565116317459e-01  2.6060890080906699e-03 2.6245563698030333e-01 4.8179264332169508e-01  2.5020457197932073e-03 3.0164535698384715e-01 5.2888188532477765e-01  4.0758083410610433e-03 2.2940546047169372e-01 4.9461380399699861e-01  4.2844797236199833e-03 3.8860569733736589e-01 6.5089288615016072e-01  3.2469541744734485e-03 3.2615259444880068e-01 5.4792327395208662e-01  3.7954178018361471e-03 2.5835814884525365e-01 5.4257165477257763e-01  2.7672197122804863e-03 6.3644212243538473e-02 4.0100047946805628e-01  3.3680502554071031e-03 4.6758810973380788e-01 5.4162732363108546e-01  2.8572539284530689e-03 3.7250322042797962e-01 4.7676518389606060e-01  3.5841331998608915e-03 1.2747777736978330e-01 4.1635791236039149e-01  1.3800392740226655e-03 2.5385172238693077e-01 5.1663571652680751e-01  4.6721263985768386e-03 8.7190392042798964e-02 5.8395939383755480e-01  3.7424965548254192e-03 1.6282504351630625e-01 6.7447172046222903e-01  3.2782156419299403e-03 1.2600578943051496e-01 4.6752838981033579e-01  4.0156181298260539e-03 1.8102602044105170e-01 5.5578054724159376e-01  3.4166563054450491e-03 4.1002288341964482e-01 5.8845006043325720e-01  3.6719212115833193e-03 2.8243672895496291e-01 4.8815002149635256e-01  2.7106752350518136e-03 1.5270723188086316e-01 4.7936108695751339e-01  3.4001794942238265e-03 3.0337823727131180e-01 6.1479811643927229e-01  3.5747373191034474e-03 3.8941297922651297e-01 5.0206399679999869e-01  1.8690580040728361e-03 1.9403455479881637e-01 5.6147560329885271e-01  3.8864045277826782e-03 3.9062342305449316e-01 5.6844616757012278e-01  3.4505168646546827e-03 3.4044959321939955e-01 3.3357490063448264e-01  3.9494064323189054e-03 3.5995505811675266e-01 2.5710657605222764e-01  3.0477406557993963e-03 4.1387435462961925e-01 4.4217824878721712e-01  3.6614839590138528e-03 3.1293261536497408e-01 4.4994913674225528e-01  3.3702687480418048e-03 3.0829860517272090e-01 4.3040916277649738e-01  2.8376282132598529e-03 3.3741847637820560e-01 4.9532236669923047e-01  2.0199397871454279e-03 2.1830088407102061e-01 2.2163191392479467e-01  4.9481980944492774e-03 1.0772723059532711e-01 4.2197340378783604e-01  3.5138176902307170e-03 2.3942803068051352e-01 1.7999813878561824e-01  3.5841006651357796e-03 1.5909073683577118e-01 5.4396902079984821e-01  3.5907933190063059e-03 2.9533987439728793e-01 4.9392105158853000e-01  3.2067179193101098e-03 1.3715730977260743e-01 5.8043952707021373e-01  3.8784984139143977e-03 1.5595240420229348e-01 3.2707220377287327e-01  2.6231903147900765e-03 1.0876444026532825e-01 5.1066727671919554e-01  3.5565802541203877e-03 2.1307586997888969e-02 5.6522608218414838e-01  2.9545588524375202e-03 2.5318211584987699e-01 3.9440472235658486e-01  2.8446001937328944e-03 1.1635718006092004e-01 5.0593967238722126e-01  4.5087697320643529e-03 4.0695008963221740e-01 4.4886254103427026e-01  2.7810928680433709e-03 1.9017197470906819e-01 5.8337819948180547e-01  2.8924152387464113e-03 3.6583759279787487e-01 4.8551260608300328e-01  3.7049026030311532e-03 9.4810056227290759e-02 5.5148419859017550e-01  3.3779339922