<?xml version="1.0"?>
<VTKFile type="UnstructuredGrid"  version="0.1"  >
<UnstructuredGrid>
<Piece  NumberOfPoints="7288" NumberOfCells="14083">
<Points>
<DataArray  type="Float64"  NumberOfComponents="3"  format="ascii">239.8 188 0  250.2 180 0  258.2 172.4 0  257 169.4 0  259.9 157.4 0  258.7 150.3 0  261 143.5 0  251.7 144.4 0  250 138.7 0  247 138.1 0  245.2 130.8 0  247.3 126.4 0  242.7 118.6 0  231.2 107.7 0  226 102.4 0  226.5 93.90000000000001 0  224.5 91.19999999999999 0  224.5 84.09999999999999 0  234.5 73.80000000000001 0  228.4 68.90000000000001 0  230 70 0  233.4 68 0  222.7 61.5 0  220.6 45.5 0  223.4 49.40000000000001 0  224 47 0  221.8 43.09999999999999 0  221 38.40000000000001 0  219.5 38.5 0  219.4 41.69999999999999 0  217.1 36.90000000000001 0  209.7 36 0  209.5 31.69999999999999 0  205.1 29.90000000000001 0  201.5 30.40000000000001 0  199.2 38.69999999999999 0  201.8 41.40000000000001 0  194.8 53.80000000000001 0  196.1 57.69999999999999 0  193 59 0  191.4 66.09999999999999 0  193.5 66.5 0  194.1 64.40000000000001 0  195.6 64.69999999999999 0  195.4 72.40000000000001 0  199.5 77.30000000000001 0  197.7 86.90000000000001 0  200.6 87.5 0  201.5 91 0  198 94.80000000000001 0  198.6 100 0  197.3 105.4 0  198 109.5 0  197 112.7 0  198.3 116.1 0  201.3 122 0  207.2 121 0  208.1 126.7 0  205.6 127.9 0  209.1 134.9 0  210.9 144.4 0  210.1 147.9 0  213 148.4 0  215.4 149.3 0  215.1 152.8 0  219.9 159.7 0  220.3 163.2 0  218.7 164.9 0  219.9 166.7 0  221.9 169.7 0  220 170.3 0  224.9 174.7 0  229.8 177.4 0  229.7 181 0  228 172.9 0  239 178 0  240.4 180 0  239 181.5 0  241.2 185.9 0  242.95 187.99 0  240.5875 187.9975 0  241.375 187.995 0  242.1625 187.9925 0  243.6090909090879 187.2636363636397 0  244.2681818181765 186.5372727272785 0  244.9272727272692 185.810909090913 0  245.5863636363531 185.0845454545571 0  246.245454545445 184.3581818181923 0  246.9045454545351 183.6318181818295 0  247.5636363636303 182.9054545454612 0  248.2227272727197 182.1790909090992 0  248.8818181818179 181.4527272727275 0  249.5409090909066 180.7263636363664 0  250.8666666666961 179.3666666666387 0  251.5333333334033 178.7333333332668 0  252.2000000000994 178.0999999999055 0  252.8666666668011 177.466666666539 0  253.5333333335083 176.8333333331671 0  254.2000000002044 176.1999999998058 0  254.8666666669005 175.5666666664445 0  255.5333333336077 174.9333333330727 0  256.2000000002685 174.2999999997449 0  256.8666666668457 173.6666666664966 0  257.5333333334283 173.033333333243 0  257.9000000000077 171.6500000000191 0  257.6000000000015 170.9000000000038 0  257.2999999999954 170.1499999999885 0  257.2230769230778 168.4769230769195 0  257.4461538461543 167.5538461538442 0  257.6692307692309 166.6307692307688 0  257.8923076923074 165.7076923076935 0  258.115384615384 164.7846153846181 0  258.3384615384605 163.8615384615427 0  258.5615384615395 162.9384615384572 0  258.784615384616 162.0153846153819 0  259.0076923076926 161.0923076923065 0  259.2307692307691 160.1692307692311 0  259.4538461538457 159.2461538461558 0  259.6769230769222 158.3230769230804 0  259.750000000001 156.512500000006 0  259.6000000000014 155.6250000000082 0  259.4500000000029 154.7375000000176 0  259.3000000000018 153.8500000000108 0  259.1500000000007 152.962500000004 0  259.0000000000004 152.0750000000026 0  258.849999999999 151.187499999994 0  258.9875000000052 149.4499999999846 0  259.275000000002 148.5999999999941 0  259.5624999999954 147.7500000000135 0  259.849999999995 146.900000000015 0  260.1374999999945 146.0500000000164 0  260.4249999999913 145.2000000000259 0  260.7124999999948 144.3500000000154 0  260.0700000000398 143.5899999999961 0  259.1400000000573 143.6799999999944 0  258.2100000000351 143.7699999999966 0  257.2800000000262 143.8599999999975 0  256.350000000011 143.9499999999989 0  255.4199999999881 144.0400000000011 0  254.4899999999726 144.1300000000026 0  253.5599999999944 144.2200000000005 0  252.6300000000009 144.3099999999999 0  251.4166666666658 143.4499999999971 0  251.1333333333388 142.5000000000182 0  250.8500000000015 141.5500000000051 0  250.5666666666612 140.5999999999818 0  250.2833333333342 139.6500000000029 0  249.2500000000005 138.5500000000001 0  248.5000000000011 138.4000000000002 0  247.7499999999995 138.2499999999999 0  246.7750000000005 137.1875000000023 0  246.5500000000021 136.2750000000085 0  246.3250000000036 135.3625000000147 0  246.1000000000042 134.450000000017 0  245.8750000000022 133.5375000000088 0  245.650000000003 132.6250000000124 0  245.4250000000046 131.7125000000187 0  245.619999999996 129.9200000000084 0  246.0399999999992 129.0400000000017 0  246.4599999999987 128.1600000000028 0  246.8800000000001 127.2799999999997 0  246.8399999999988 125.6199999999979 0  246.3799999999984 124.8399999999973 0  245.9199999999991 124.0599999999985 0  245.4600000000036 123.2800000000062 0  245.0000000000049 122.5000000000082 0  244.5400000000036 121.7200000000062 0  244.0800000000033 120.9400000000056 0  243.6200000000016 120.1600000000027 0  243.1600000000012 119.3800000000021 0  241.9812499999996 117.9187499999997 0  241.2625000000007 117.2375000000007 0  240.5437500000017 116.5562500000017 0  239.8250000000041 115.875000000004 0  239.1062500000066 115.1937500000063 0  238.3875000000076 114.5125000000072 0  237.6687500000087 113.8312500000082 0  236.9500000000083 113.1500000000079 0  236.231250000008 112.4687500000076 0  235.512500000009 111.7875000000085 0  234.7937500000045 111.1062500000043 0  234.0750000000042 110.4250000000039 0  233.3562500000066 109.7437500000062 0  232.6375000000021 109.062500000002 0  231.9187500000031 108.381250000003 0  230.5500000000004 107.0375000000004 0  229.9000000000021 106.3750000000021 0  229.2500000000038 105.7125000000039 0  228.6000000000041 105.0500000000042 0  227.9500000000018 104.3875000000018 0  227.2999999999952 103.7249999999951 0  226.6500000000024 103.0625000000024 0  226.0555555555555 101.4555555555556 0  226.1111111111111 100.5111111111111 0  226.1666666666667 99.56666666666668 0  226.2222222222222 98.62222222222223 0  226.2777777777778 97.67777777777778 0  226.3333333333333 96.73333333333335 0  226.3888888888889 95.78888888888889 0  226.4444444444445 94.84444444444446 0  226 93.22499999999999 0  225.5000000000026 92.55000000000358 0  225.0000000000026 91.87500000000358 0  224.5 90.31250000000068 0  224.5 89.4250000000097 0  224.5 88.53750000001317 0  224.5 87.65000000001388 0  224.5 86.76250000001457 0  224.5 85.87500000001248 0  224.5 84.9874999999993 0  225.1666666666659 83.41333333333409 0  225.8333333333319 82.72666666666818 0  226.4999999999978 82.04000000000228 0  227.1666666666649 81.35333333333514 0  227.8333333333301 80.66666666667 0  228.4999999999942 79.980000000006 0  229.1666666666601 79.2933333333401 0  229.8333333333316 78.60666666666847 0  230.4999999999975 77.92000000000257 0  231.1666666666644 77.23333333333572 0  231.8333333333295 76.54666666667057 0  232.4999999999972 75.86000000000287 0  233.1666666666681 75.17333333333181 0  233.8333333333368 74.48666666666306 0  233.7499999999995 73.16666666666629 0  233.0000000000018 72.53333333333488 0  232.2500000000014 71.90000000000116 0  231.5000000000009 71.26666666666743 0  230.7500000000005 70.63333333333372 0  229.233333333333 68.75000000000006 0  230.0666666666665 68.60000000000004 0  230.8999999999995 68.45000000000009 0  231.7333333333325 68.30000000000015 0  232.566666666667 68.14999999999995 0  232.5499999999897 68.50000000000607 0  231.7 69 0  230.8500000000103 69.49999999999393 0  227.8300000000008 68.16000000000106 0  227.2600000000064 67.42000000000837 0  226.6900000000077 66.68000000001001 0  226.1200000000024 65.94000000000314 0  225.5500000000108 65.20000000001409 0  224.9800000000098 64.46000000001268 0  224.4100000000007 63.72000000000098 0  223.8399999999971 62.97999999999621 0  223.2699999999993 62.23999999999915 0  222.753846153846 60.56923076923239 0  222.8076923076921 59.63846153846478 0  222.8615384615381 58.70769230769827 0  222.9153846153842 57.77692307693071 0  222.9692307692302 56.84615384616315 0  223.0230769230761 55.91538461539836 0  223.0769230769224 54.98461538462665 0  223.1307692307688 54.05384615385345 0  223.184615384615 53.12307692308312 0  223.2384615384611 52.19230769231556 0  223.2923076923071 51.26153846154906 0  223.3461538461533 50.33076923077847 0  222.8400000000024 48.62000000000327 0  222.2800000000047 47.84000000000661 0  221.7200000000005 47.06000000000071 0  221.1600000000003 46.28000000000039 0  221.4500000000116 45.87500000000512 0  222.3 46.25 0  223.1499999999884 46.62499999999488 0  223.5600000000055 46.22000000000981 0  223.1199999999987 45.43999999999767 0  222.6800000000061 44.66000000001075 0  222.2399999999969 43.8799999999944 0  221.6400000000004 42.16000000000253 0  221.4800000000009 41.22000000000548 0  221.3200000000014 40.28000000000801 0  221.1600000000009 39.34000000000556 0  220.25 38.45 0  219.4749999999999 39.30000000000165 0  219.45 40.09999999999999 0  219.425 40.90000000000112 0  219.0166666666641 40.89999999999463 0  218.6333333333375 40.10000000000875 0  218.2500000000016 39.30000000000339 0  217.8666666666635 38.49999999999351 0  217.483333333337 37.70000000000762 0  216.1750000000165 36.78750000000201 0  215.2500000000275 36.67500000000335 0  214.3250000000385 36.56250000000469 0  213.4000000000277 36.45000000000337 0  212.4750000000059 36.33750000000072 0  211.5499999999838 36.22499999999803 0  210.6249999999835 36.11249999999799 0  209.6600000000001 35.14000000000318 0  209.6200000000001 34.28000000000268 0  209.5800000000001 33.42000000000284 0  209.5399999999998 32.55999999999681 0  208.6200000000117 31.34000000000476 0  207.7400000000138 30.98000000000564 0  206.8600000000162 30.62000000000662 0  205.9800000000174 30.26000000000711 0  204.2000000000054 30.02499999999925 0  203.2999999999946 30.15000000000076 0  202.3999999999945 30.27500000000076 0  201.2444444444438 31.32222222222468 0  200.9888888888895 32.24444444
[...]
<PointData  Vectors="f_12"> 
<DataArray  type="Float64"  Name="f_12"  NumberOfComponents="3" format="ascii">5.2663047997010493e-01 1.8545620160629681e-01 6.0962381555669587e-01  5.2563800718833575e-01 1.8374933367692040e-01 6.0643268655655236e-01  5.2447216023394827e-01 1.8180840933044909e-01 6.0260821054888414e-01  5.2393805036575858e-01 1.8096117647449636e-01 6.0082083732115377e-01  5.2040557255502218e-01 1.7567969279066056e-01 5.8859393104869151e-01  5.1819670002923834e-01 1.7274640630726881e-01 5.8055178759311021e-01  5.1751302319319059e-01 1.7184481750327973e-01 5.7801896925681673e-01  5.1444794347845879e-01 1.6874614031624446e-01 5.6607610192317526e-01  5.1020249933301132e-01 1.6503498520555832e-01 5.4873126670758066e-01  5.0815081235008264e-01 1.6379165951749716e-01 5.3981640250782359e-01  5.0132183197746316e-01 1.6144053242595358e-01 5.0829532598639082e-01  4.9928672812434316e-01 1.6143550595046030e-01 4.9824799436604283e-01  4.9661583447857027e-01 1.6266469987332297e-01 4.8423486016252759e-01  4.9075936869311187e-01 1.7116473233074217e-01 4.4967209294311838e-01  4.8794331225867982e-01 1.8052936129744765e-01 4.2977309748072412e-01  4.8608158186328293e-01 1.9093020548441045e-01 4.1413027443082778e-01  4.8568677124237541e-01 1.9452524299362403e-01 4.1002382953980226e-01  4.8490766698021542e-01 2.0455966346527346e-01 4.0025142739031905e-01  4.8457388171762344e-01 2.1186279442177600e-01 3.9435942146827746e-01  4.8455236504908800e-01 2.1290967648593057e-01 3.9365764297624434e-01  4.8455862843932401e-01 2.1255834784602348e-01 3.9388789100179000e-01  4.8455322474902074e-01 2.1271790223209885e-01 3.9376891219526122e-01  4.8449132921138932e-01 2.1735007844472939e-01 3.9083911030484936e-01  4.8447429839533440e-01 2.2287176865970898e-01 3.8764073335731258e-01  4.8447133921503016e-01 2.2182648408432162e-01 3.8821346928475026e-01  4.8447496355384617e-01 2.2309116362974302e-01 3.8752067094039638e-01  4.8447540197953104e-01 2.2316261378651284e-01 3.8748280709303623e-01  4.8447629959031308e-01 2.2336761516837256e-01 3.8737211640360819e-01  4.8447629939100878e-01 2.2336735963092852e-01 3.8737225961134109e-01  4.8447617511841268e-01 2.2330848151979965e-01 3.8740480899500596e-01  4.8447867501597930e-01 2.2371458539613887e-01 3.8718953536625322e-01  4.8448245022263292e-01 2.2419627110711132e-01 3.8693859557539778e-01  4.8448513936394022e-01 2.2452820248843147e-01 3.8676606433661581e-01  4.8448580330612762e-01 2.2460576947240904e-01 3.8672593437446706e-01  4.8448584865986222e-01 2.2461038030123387e-01 3.8672358286906122e-01  4.8448311399906380e-01 2.2426722315240805e-01 3.8690223186939876e-01  4.8447967965549960e-01 2.2376537953625214e-01 3.8716649454646940e-01  4.8446965303726747e-01 2.2095015952524816e-01 3.8869731605644736e-01  4.8447174895006528e-01 2.1983274716679754e-01 3.8933727841500376e-01  4.8447338450233507e-01 2.1918721206644207e-01 3.8970896879270767e-01  4.8449308629647830e-01 2.1670838651038177e-01 3.9120829628794895e-01  4.8449322774254427e-01 2.1675018835221752e-01 3.9118570294964899e-01  4.8447940658993427e-01 2.1830727342129064e-01 3.9023631503629796e-01  4.8448420598721365e-01 2.1777651450514451e-01 3.9056059182643549e-01  4.8451892444140188e-01 2.1519555035434126e-01 3.9219808887044599e-01  4.8463947843213512e-01 2.1057685585462088e-01 3.9543974205385829e-01  4.8492053351512726e-01 2.0377982651148938e-01 4.0075151106196283e-01  4.8502863097338017e-01 2.0217977077865718e-01 4.0222620771783846e-01  4.8546223975997960e-01 1.9649911336314899e-01 4.0771387828143180e-01  4.8590850072140890e-01 1.9171780972191360e-01 4.1274887492792073e-01  4.8637059432870866e-01 1.8808300625594446e-01 4.1722262679538852e-01  4.8699355208688738e-01 1.8402038142496277e-01 4.2277472129620275e-01  4.8749645578870116e-01 1.8135286577983983e-01 4.2690830268449254e-01  4.8784407300639460e-01 1.7968682213497580e-01 4.2966250785757709e-01  4.8817221937138228e-01 1.7832379248360875e-01 4.3214556987003183e-01  4.8876468044568194e-01 1.7619142075182181e-01 4.3644467749887850e-01  4.9021130712490424e-01 1.7253029688124047e-01 4.4605059915698564e-01  4.9373019236157117e-01 1.6583539850745879e-01 4.6790141765769688e-01  4.9437181630046917e-01 1.6487390222364520e-01 4.7170181925391386e-01  4.9701753951184546e-01 1.6268183756788998e-01 4.8627250783277298e-01  5.0208923968273755e-01 1.6126331276306996e-01 5.1212549955831521e-01  5.0287165577683524e-01 1.6128237098983511e-01 5.1591984124087253e-01  5.0343519075438636e-01 1.6145968450390816e-01 5.1855714986295975e-01  5.0533428093257471e-01 1.6216036162263667e-01 5.2731002255998338e-01  5.0776679869063335e-01 1.6328317495823186e-01 5.3826403664159328e-01  5.1331121543964375e-01 1.6761060719440615e-01 5.6155544238313504e-01  5.1619533981775612e-01 1.7050261805705705e-01 5.7294404025160506e-01  5.1699985717419317e-01 1.7136612789143660e-01 5.7604448561762012e-01  5.1749734189967922e-01 1.7194270393417463e-01 5.7792465667927717e-01  5.1842719513384561e-01 1.7307061767575055e-01 5.8139700759417667e-01  5.1818797605675271e-01 1.7275933325986986e-01 5.8051665478301528e-01  5.1982000865338052e-01 1.7487954381447923e-01 5.8649335827431370e-01  5.2267929671103419e-01 1.7899540997676927e-01 5.9655426136271039e-01  5.2301081642947045e-01 1.7948445506460170e-01 5.9769504891047953e-01  5.2062763444021887e-01 1.7603368767611691e-01 5.8936661159522252e-01  5.2435191508434731e-01 1.8165677863169263e-01 6.0219072827260633e-01  5.2559370232795177e-01 1.8370100270761031e-01 6.0627757792223780e-01  5.2602501046852668e-01 1.8442238943887790e-01 6.0768023635290092e-01  5.2652571562300421e-01 1.8527553013474302e-01 6.0928914728295969e-01  5.2658951707158286e-01 1.8538516824356463e-01 6.0949318124371199e-01  5.2662520197029505e-01 1.8544706686716778e-01 6.0960697904160521e-01  5.2661383193460709e-01 1.8542736456827341e-01 6.0957071784397354e-01  5.2660089503715879e-01 1.8540491502408102e-01 6.0952946785471096e-01  5.2656065472786862e-01 1.8533517993329748e-01 6.0940105415728685e-01  5.2650902417344059e-01 1.8524580805086721e-01 6.0923614907986501e-01  5.2644235358560498e-01 1.8513047141113620e-01 6.0902301781202628e-01  5.2636426932101477e-01 1.8499550650148622e-01 6.0877311108816112e-01  5.2627678264715372e-01 1.8484446136134236e-01 6.0849273814654203e-01  5.2618261336537009e-01 1.8468208094078886e-01 6.0819049441384365e-01  5.2608176809301876e-01 1.8450851369197588e-01 6.0786627760026690e-01  5.2597637717810053e-01 1.8432748092754800e-01 6.0752684921663769e-01  5.2586817338701364e-01 1.8414202736752824e-01 6.0717770148412331e-01  5.2575553971595845e-01 1.8394955661343729e-01 6.0681351252699667e-01  5.2552797217210878e-01 1.8356241861824171e-01 6.0607544323717932e-01  5.2542095680332046e-01 1.8338122803778914e-01 6.0572729403396586e-01  5.2531334486593295e-01 1.8319974456513535e-01 6.0537645815558927e-01  5.2520504088448150e-01 1.8301783073175065e-01 6.0502261847648553e-01  5.2509672236981098e-01 1.8283664316755247e-01 6.0466797502083247e-01  5.2498917520476074e-01 1.8265748808765883e-01 6.0431512226642503e-01  5.2488215750305300e-01 1.8248002301461461e-01 6.0396326096080288e-01  5.2477751748518986e-01 1.8230728963857912e-01 6.0361850781415005e-01  5.2467807785166276e-01 1.8214389765667185e-01 6.0329022846180036e-01  5.2458749259219828e-01 1.8199575903104126e-01 6.0299060981391617e-01  5.2451325015566153e-01 1.8187493795981649e-01 6.0274459945082215e-01  5.2442660076102898e-01 1.8173561980658073e-01 6.0245639131754503e-01  5.2432602006882312e-01 1.8157543753342251e-01 6.0212069937744483e-01  5.2417319321773492e-01 1.8133289872613492e-01 6.0160952836230963e-01  5.2363089625637227e-01 1.8047801625856336e-01 5.9978689132443863e-01  5.2335252920180864e-01 1.8004320648240790e-01 5.9884554691012748e-01  5.2307709295599958e-01 1.7961641879969159e-01 5.9790959669169030e-01  5.2279989936253690e-01 1.7919058006387331e-01 5.9696307310813423e-01  5.2252035383185325e-01 1.7876498074146863e-01 5.9600382600477242e-01  5.2223907239095735e-01 1.7834071584369482e-01 5.9503387409984421e-01  5.2195732659296179e-01 1.7791981539716278e-01 5.9405754238572517e-01  5.2167652794281372e-01 1.7750440292885455e-01 5.9307978853884813e-01  5.2139906110587952e-01 1.7709805906173587e-01 5.9210893355056038e-01  5.2112600910257700e-01 1.7670238419068779e-01 5.9114894309366772e-01  5.2086248653564393e-01 1.7632448858585392e-01 5.9021819493718297e-01  5.2061428666918719e-01 1.7597242936783819e-01 5.8933762160421477e-01  5.2019940642109064e-01 1.7539477727551764e-01 5.8785563326860546e-01  5.1995108898333875e-01 1.7505539157269967e-01 5.8696268323606493e-01  5.1968051905236345e-01 1.7468958232057721e-01 5.8598548112082127e-01  5.1939692287334327e-01 1.7431045490010116e-01 5.8495658701534559e-01  5.1910560994950627e-01 1.7392529337449344e-01 5.8389476684656161e-01  5.1881074453960208e-01 1.7353943939609895e-01 5.8281504994845246e-01  5.1851192868886120e-01 1.7315211313021345e-01 5.8171596571800188e-01  5.1794546159442012e-01 1.7242154540221855e-01 5.7962188409189563e-01  5.1777146037064159e-01 1.7219644449244118e-01 5.7897622416731021e-01  5.1765580125735589e-01 1.7204496674607681e-01 5.7854672638250593e-01  5.1757921231737725e-01 1.7194303183967730e-01 5.7826233157546814e-01  5.1753557954758400e-01 1.7188275890544999e-01 5.7810073893359215e-01  5.1751597047237485e-01 1.7185334986706513e-01 5.7802869192224704e-01  5.1751182025615272e-01 1.7184463847457640e-01 5.7801410708727408e-01  5.1750474623734100e-01 1.7183656216893317e-01 5.7798739157181300e-01  5.1746969556009603e-01 1.7180026398611939e-01 5.7785396535514189e-01  5.1739639137041749e-01 1.7172299836658766e-01 5.7757502129205063e-01  5.1727691882862670e-01 1.7159655802421525e-01 5.7711982873992240e-01  5.1709969678519763e-01 1.7140920275058433e-01 5.7644296845291609e-01  5.1685410220439088e-01 1.7115121128597371e-01 5.7550148248523869e-01  5.1652665439386281e-01 1.7081136232166019e-01 5.7423947907527695e-01  5.1609260693279635e-01 1.7036817612974095e-01 5.7255491501918676e-01  5.1548787016687192e-01 1.6976298834714199e-01 5.7018739208471869e-01  5.1322188023635118e-01 1.6758620344675459e-01 5.6117152994683672e-01  5.1235522319320048e-01 1.6679849128323557e-01 5.5766169297343227e-01  5.1161480765026568e-01 1.6615612191450316e-01 5.5462631343302171e-01  5.1099049036971222e-01 1.6564057624458306e-01 5.5203894454823732e-01  5.1049481493991866e-01 1.6525106339587897e-01 5.4996564191324770e-01  5.1002212451493301e-01 1.6491496933671493e-01 5.4795866463666398e-01  5.0963945794567755e-01 1.6467022083045810e-01 5.4631010644354139e-01  5.0906767017585342e-01 1.6432199989418406e-01 5.4382814587588635e-01  5.0691349273439512e-01 1.6313133246584388e-01 5.3434204277125930e-01  5.0597636280105607e-01 1.6268416604792935e-01 5.3013863472477030e-01  5.0513958646419943e-01 1.6233425544116353e-01 5.2633363538295008e-01  5.0435759748417575e-01 1.6205466258468884e-01 5.2273034476932423e-01  5.0361074546589402e-01 1.6183403656265269e-01 5.1924425519666606e-01  5.0288292385897593e-01 1.6166360472908023e-01 5.1580497708281736e-01  5.0214991008214782e-01 1.6153601016986474e-01 5.1230002776665362e-01  5.0058886951228254e-01 1.6139342833995918e-01 5.0471562241661816e-01  5.0008974255489624e-01 1.6138507314423037e-01 5.0225618286433682e-01  4.9971395945030406e-01 1.6139616305482807e-01 5.0038968655787908e-01  4.9943990274056410e-01 1.6141664190188401e-01 4.9901900261909443e-01  4.9915557847520398e-01 1.6146441230853031e-01 4.9758040433303341e-01  4.9894391882948491e-01 1.6152170000601665e-01 4.9649666216437488e-01  4.9868886810665464e-01 1.6160234020337627e-01 4.9518339289024188e-01  4.9840477243938225e-01 1.6170500565140045e-01 4.9371206526778522e-01  4.9810571075596538e-01 1.6182755449682712e-01 4.9215356139607197e-01  4.9779739364006959e-01 1.6196908187987197e-01 4.9053643392808505e-01  4.9748570792379004e-01 1.6212807486535827e-01 4.8889069571771693e-01  4.9717733295438293e-01 1.6230196420646914e-01 4.8725119368152270e-01  4.9688039260737094e-01 1.6248578374578504e-01 4.8566140674170710e-01  4.9632213853246077e-01 1.6288433101447294e-01 4.8263741285553929e-01  4.9598900724939315e-01 1.6315652151784935e-01 4.8081010357671555e-01  4.9563884940512404e-01 1.6346731612843954e-01 4.7887292906286433e-01  4.9527628419280173e-01 1.6381678074373465e-01 4.7684848502944083e-01  4.9490571777792330e-01 1.6420320614594333e-01 4.7475970861197814e-01  4.9453014053916083e-01 1.6462675043078387e-01 4.7262135174065933e-01  4.9415090709256776e-01 1.6508870750239441e-01 4.7043933527007170e-01  4.9376974724613698e-01 1.6558965548739846e-01 4.6822201420353132e-01  4.9338852071664213e-01 1.6612949981262543e-01 4.6597888798825648e-01  4.9300754105840422e-01 1.6671069699942762e-01 4.6371010214890551e-01  4.9262774772998336e-01 1.6733400856568612e-01 4.6142008158547149e-01  4.9225033073185925e-01 1.6799971277973935e-01 4.5911484643694622e-01  4.9187435191989548e-01 1.6871285784456974e-01 4.5678673839769895e-01  4.9150223205094340e-01 1.6947312468759726e-01 4.5444833153604208e-01  4.9113119814157757e-01 1.7028790710732283e-01 4.5208139343436521e-01  4.9041397196720121e-01 1.7203918838625629e-01 4.4739725462908581e-01  4.9007689540953975e-01 1.7295412989440456e-01 4.4513966816264711e-01  4.8974446614249578e-01 1.7391956044967591e-01 4.4287491980871962e-01  4.8941401137651680e-01 1.7495229543675928e-01 4.4057949602127150e-01  4.8908366441420886e-01 1.7605987748895294e-01 4.3823942031276147e-01  4.8874627097505174e-01 1.7727590358265935e-01 4.3579831082671283e-01  4.8838552149441350e-01 1.7867796184718138e-01 4.3312698127076310e-01  4.8752412531538741e-01 1.8242899678351712e-01 4.2650837794649221e-01  4.8722480229556620e-01 1.8388988851590735e-01 4.2411547092409047e-01  4.8697776853658925e-01 1.8518476779996332e-01 4.2208813064682060e-01  4.8676513130006666e-01 1.8637862897131183e-01 4.2029684952371749e-01  4.8657917660289773e-01 1.8749368869565838e-01 4.1868933678749926e-01  4.8641677615366774e-01 1.8853222864864363e-01 4.1724840151795728e-01  4.8627687097363642e-01 1.8948458016876613e-01 4.1597430598557356e-01  4.8616123811781065e-01 1.9032030500925115e-01 4.1489381526509000e-01  4.8601966281804621e-01 1.9144287919876346e-01 4.1351512514248584e-01  4.8593002517465916e-01 1.9222207079584674e-01 4.1260376902660029e-01  4.8582330989848221e-01 1.9320098702685379e-01 4.1148981116078326e-01  4.8554310690443464e-01 1.9600628230636113e-01 4.0843153527417209e-01  4.8542905171718814e-01 1.9726145506288179e-01 4.0712228750640334e-01  4.8532893508582170e-01 1.9843988776990526e-01 4.0592949266773132e-01  4.8523784012471632e-01 1.9958676321023708e-01 4.0480181458532333e-01  4.8515353739288702e-01 2.0072475923284769e-01 4.0371476702367098e-01  4.8507403018506401e-01 2.0187569670535033e-01 4.0264546655689526e-01  4.8499637600908779e-01 2.0308139960548297e-01 4.0155477648858523e-01  4.8482867725060447e-01 2.0597345653116469e-01 3.9903542989511326e-01  4.8477590517421432e-01 2.0698399579025775e-01 3.9818545488981033e-01  4.8473491320420137e-01 2.0782042318395319e-01 3.9749597397772951e-01  4.8470177592499092e-01 2.0853869545791096e-01 3.9691472812542788e-01  4.8467451998696104e-01 2.0916402233362891e-01 3.9641709723615576e-01  4.8465192012150454e-01 2.0971058039514456e-01 3.9598861812506952e-01  4.8463318699532937e-01 2.1018619087375012e-01 3.9562070474327848e-01  4.8461774666683410e-01 2.1059582906151345e-01 3.9530750770375161e-01  4.8460511176739485e-01 2.1094422961051809e-01 3.9504376838711153e-01  4.8459496251555351e-01 2.1123353932665526e-01 3.9482657669050686e-01  4.8458700638163588e-01 2.1146664286034297e-01 3.9465275221278606e-01  4.8458107010732271e-01 2.1164429653474198e-01 3.9452094809234667e-01  4.8457699389839354e-01 2.1176806286498961e-01 3.9442943534845804e-01  4.8457462635790138e-01 2.1184058657043917e-01 3.9437592073767208e-01  4.8457363236814349e-01 2.1187592793357451e-01 3.9435074084533961e-01  4.8457262584328270e-01 2.1192334887383962e-01 3.9431879724722202e-01  4.8457078481953386e-01 2.1200852880525603e-01 3.9426122506382361e-01  4.8456809843700194e-01 2.1213254726980380e-01 3.9417735458002329e-01  4.8456433962227458e-01 2.1230465165294907e-01 3.9406076362587816e-01  4.8455521745925989e-01 2.1272311993785378e-01 3.9377726180493733e-01  4.8455542356262454e-01 2.1267781746232273e-01 3.9380356081140477e-01  4.8455463437273338e-01 2.1268764402733054e-01 3.9379365733291799e-01  4.8455391771454542e-01 2.1270233860626445e-01 3.9378145991346208e-01  4.8455344752872692e-01 2.1271285994643299e-01 3.9377296788566751e-01  4.8455349256936425e-01 2.1271183970421620e-01 3.9377378828574938e-01  4.8455414000044184e-01 2.1269700608718214e-01 3.9378567307963719e-01  4.8455534962985919e-01 2.1266665806659552e-01 3.9380933315603228e-01  4.8454582978347532e-01 2.1327899449161142e-01 3.9341574469711715e-01  4.8453964294636370e-01 2.1363169840172339e-01 3.9318491369909725e-01  4.8453346619046173e-01 2.1399732574269040e-01 3.9294682557190913e-01  4.8452731761817719e-01 2.1438045907728831e-01 3.9269901812123126e-01  4.8452123950161025e-01 2.1478330040605154e-01 3.9244048285925370e-01  4.8451528048661391e-01 2.1520691071201933e-01 3.9217088070609424e-01  4.8450945200425055e-01 2.1565528558913594e-01 3.9188802037887194e-01  4.8450371095579858e-01 2.1613711934341537e-01 3.9158677254764807e-01  4.8449791290792360e-01 2.1667303867936041e-01 3.9125475250962899e-01  4.8448547748157367e-01 2.1802700972269551e-01 3.9042728031248292e-01  4.8448154088285572e-01 2.1854774495206311e-01 3.9011338461188239e-01  4.8447854238297267e-01 2.1900685156657226e-01 3.8983909070640210e-01  4.8447624901577663e-01 2.1942220122172149e-01 3.8959313166987930e-01  4.8447449992710534e-01 2.1980427863444388e-01 3.8936876754928856e-01  4.8447320371768327e-01 2.2015657095562668e-01 3.8916356020767762e-01  4.8447228040730267e-01 2.2048164078611585e-01 3.8897564811966162e-01  4.8447166415942483e-01 2.2078073140089335e-01 3.8880398533683647e-01  4.8447129764125124e-01 2.2105425136754928e-01 3.8864804004914466e-01  4.8447113206629216e-01 2.2130093696316727e-01 3.8850826728464621e-01  4.8447111985849833e-01 2.2151876691526756e-01 3.8838555518338580e-01  4.8447121333684945e-01 2.2170230681339245e-01 3.8828271304053352e-01  4.8447155970343297e-01 2.2195094235281609e-01 3.8814458100140969e-01  4.8447194246442299e-01 2.2211990909174231e-01 3.8805150445779241e-01  4.8447247496674850e-01 2.2231602137368800e-01 3.8794394111020936e-01  4.8447319025207491e-01 2.2254583289024613e-01 3.8781836728678920e-01  4.8447479640565466e-01 2.2302685637978509e-01 3.8755602435055403e-01  4.8447492188611629e-01 2.2307161057102962e-01 3.8753147308511915e-01  4.8447495544397101e-01 2.2308668780704630e-01 3.8752315183942015e-01  4.8447495609356506e-01 2.2308698799944249e-01 3.8752298604326324e-01  4.8447494797714008e-01 2.2307933636000543e-01 3.8752725955225681e-01  4.8447497853974347e-01 2.2307845980406996e-01 3.8752792647185919e-01  4.8447511821005523e-01 2.2310328652700889e-01 3.8751469914736314e-01  4.8447574743770433e-01 2.2323823919190849e-01 3.8744205835084949e-01  4.8447600411526215e-01 2.2329603444996052e-01 3.8741087219054260e-01  4.8447617173549851e-01 2.2333582588832676e-01 3.8738934766054262e-01  4.8447626697595497e-01 2.2335940941030952e-01 3.8737656659596403e-01  4.8447629764092681e-01 2.2336701196805542e-01 3.8737244607068227e-01  4.8447627909138741e-01 2.2336183129957904e-01 3.8737526724502680e-01  4.8447622756892283e-01 2.2334716447799688e-01 3.8738325964581277e-01  4.8447617244495761e-01 2.2332709975039783e-01 3.8739428004074794e-01  4.8447679908550956e-01 2.2340934913322680e-01 3.8735136832900896e-01  4.8447732460299076e-01 2.2349719607535931e-01 3.8730471906779662e-01  4.8447779224517118e-01 2.2357443105330574e-01 3.8726373173816342e-01  4.8447819333509251e-01 2.2363923475935946e-01 3.8722938715741606e-01  4.8447850450488339e-01 2.2368836951789234e-01 3.8720338451411923e-01  4.8447882632239858e-01 2.2373604399067246e-01 3.8717826508100772e-01  4.8447907633305187e-01 2.2377017867189092e-01 3.8716038908633937e-01  4.8447939277