<?xml version="1.0"?>
<VTKFile type="UnstructuredGrid"  version="0.1"  >
<UnstructuredGrid>
<Piece  NumberOfPoints="7288" NumberOfCells="14083">
<Points>
<DataArray  type="Float64"  NumberOfComponents="3"  format="ascii">239.8 188 0  250.2 180 0  258.2 172.4 0  257 169.4 0  259.9 157.4 0  258.7 150.3 0  261 143.5 0  251.7 144.4 0  250 138.7 0  247 138.1 0  245.2 130.8 0  247.3 126.4 0  242.7 118.6 0  231.2 107.7 0  226 102.4 0  226.5 93.90000000000001 0  224.5 91.19999999999999 0  224.5 84.09999999999999 0  234.5 73.80000000000001 0  228.4 68.90000000000001 0  230 70 0  233.4 68 0  222.7 61.5 0  220.6 45.5 0  223.4 49.40000000000001 0  224 47 0  221.8 43.09999999999999 0  221 38.40000000000001 0  219.5 38.5 0  219.4 41.69999999999999 0  217.1 36.90000000000001 0  209.7 36 0  209.5 31.69999999999999 0  205.1 29.90000000000001 0  201.5 30.40000000000001 0  199.2 38.69999999999999 0  201.8 41.40000000000001 0  194.8 53.80000000000001 0  196.1 57.69999999999999 0  193 59 0  191.4 66.09999999999999 0  193.5 66.5 0  194.1 64.40000000000001 0  195.6 64.69999999999999 0  195.4 72.40000000000001 0  199.5 77.30000000000001 0  197.7 86.90000000000001 0  200.6 87.5 0  201.5 91 0  198 94.80000000000001 0  198.6 100 0  197.3 105.4 0  198 109.5 0  197 112.7 0  198.3 116.1 0  201.3 122 0  207.2 121 0  208.1 126.7 0  205.6 127.9 0  209.1 134.9 0  210.9 144.4 0  210.1 147.9 0  213 148.4 0  215.4 149.3 0  215.1 152.8 0  219.9 159.7 0  220.3 163.2 0  218.7 164.9 0  219.9 166.7 0  221.9 169.7 0  220 170.3 0  224.9 174.7 0  229.8 177.4 0  229.7 181 0  228 172.9 0  239 178 0  240.4 180 0  239 181.5 0  241.2 185.9 0  242.95 187.99 0  240.5875 187.9975 0  241.375 187.995 0  242.1625 187.9925 0  243.6090909090879 187.2636363636397 0  244.2681818181765 186.5372727272785 0  244.9272727272692 185.810909090913 0  245.5863636363531 185.0845454545571 0  246.245454545445 184.3581818181923 0  246.9045454545351 183.6318181818295 0  247.5636363636303 182.9054545454612 0  248.2227272727197 182.1790909090992 0  248.8818181818179 181.4527272727275 0  249.5409090909066 180.7263636363664 0  250.8666666666961 179.3666666666387 0  251.5333333334033 178.7333333332668 0  252.2000000000994 178.0999999999055 0  252.8666666668011 177.466666666539 0  253.5333333335083 176.8333333331671 0  254.2000000002044 176.1999999998058 0  254.8666666669005 175.5666666664445 0  255.5333333336077 174.9333333330727 0  256.2000000002685 174.2999999997449 0  256.8666666668457 173.6666666664966 0  257.5333333334283 173.033333333243 0  257.9000000000077 171.6500000000191 0  257.6000000000015 170.9000000000038 0  257.2999999999954 170.1499999999885 0  257.2230769230778 168.4769230769195 0  257.4461538461543 167.5538461538442 0  257.6692307692309 166.6307692307688 0  257.8923076923074 165.7076923076935 0  258.115384615384 164.7846153846181 0  258.3384615384605 163.8615384615427 0  258.5615384615395 162.9384615384572 0  258.784615384616 162.0153846153819 0  259.0076923076926 161.0923076923065 0  259.2307692307691 160.1692307692311 0  259.4538461538457 159.2461538461558 0  259.6769230769222 158.3230769230804 0  259.750000000001 156.512500000006 0  259.6000000000014 155.6250000000082 0  259.4500000000029 154.7375000000176 0  259.3000000000018 153.8500000000108 0  259.1500000000007 152.962500000004 0  259.0000000000004 152.0750000000026 0  258.849999999999 151.187499999994 0  258.9875000000052 149.4499999999846 0  259.275000000002 148.5999999999941 0  259.5624999999954 147.7500000000135 0  259.849999999995 146.900000000015 0  260.1374999999945 146.0500000000164 0  260.4249999999913 145.2000000000259 0  260.7124999999948 144.3500000000154 0  260.0700000000398 143.5899999999961 0  259.1400000000573 143.6799999999944 0  258.2100000000351 143.7699999999966 0  257.2800000000262 143.8599999999975 0  256.350000000011 143.9499999999989 0  255.4199999999881 144.0400000000011 0  254.4899999999726 144.1300000000026 0  253.5599999999944 144.2200000000005 0  252.6300000000009 144.3099999999999 0  251.4166666666658 143.4499999999971 0  251.1333333333388 142.5000000000182 0  250.8500000000015 141.5500000000051 0  250.5666666666612 140.5999999999818 0  250.2833333333342 139.6500000000029 0  249.2500000000005 138.5500000000001 0  248.5000000000011 138.4000000000002 0  247.7499999999995 138.2499999999999 0  246.7750000000005 137.1875000000023 0  246.5500000000021 136.2750000000085 0  246.3250000000036 135.3625000000147 0  246.1000000000042 134.450000000017 0  245.8750000000022 133.5375000000088 0  245.650000000003 132.6250000000124 0  245.4250000000046 131.7125000000187 0  245.619999999996 129.9200000000084 0  246.0399999999992 129.0400000000017 0  246.4599999999987 128.1600000000028 0  246.8800000000001 127.2799999999997 0  246.8399999999988 125.6199999999979 0  246.3799999999984 124.8399999999973 0  245.9199999999991 124.0599999999985 0  245.4600000000036 123.2800000000062 0  245.0000000000049 122.5000000000082 0  244.5400000000036 121.7200000000062 0  244.0800000000033 120.9400000000056 0  243.6200000000016 120.1600000000027 0  243.1600000000012 119.3800000000021 0  241.9812499999996 117.9187499999997 0  241.2625000000007 117.2375000000007 0  240.5437500000017 116.5562500000017 0  239.8250000000041 115.875000000004 0  239.1062500000066 115.1937500000063 0  238.3875000000076 114.5125000000072 0  237.6687500000087 113.8312500000082 0  236.9500000000083 113.1500000000079 0  236.231250000008 112.4687500000076 0  235.512500000009 111.7875000000085 0  234.7937500000045 111.1062500000043 0  234.0750000000042 110.4250000000039 0  233.3562500000066 109.7437500000062 0  232.6375000000021 109.062500000002 0  231.9187500000031 108.381250000003 0  230.5500000000004 107.0375000000004 0  229.9000000000021 106.3750000000021 0  229.2500000000038 105.7125000000039 0  228.6000000000041 105.0500000000042 0  227.9500000000018 104.3875000000018 0  227.2999999999952 103.7249999999951 0  226.6500000000024 103.0625000000024 0  226.0555555555555 101.4555555555556 0  226.1111111111111 100.5111111111111 0  226.1666666666667 99.56666666666668 0  226.2222222222222 98.62222222222223 0  226.2777777777778 97.67777777777778 0  226.3333333333333 96.73333333333335 0  226.3888888888889 95.78888888888889 0  226.4444444444445 94.84444444444446 0  226 93.22499999999999 0  225.5000000000026 92.55000000000358 0  225.0000000000026 91.87500000000358 0  224.5 90.31250000000068 0  224.5 89.4250000000097 0  224.5 88.53750000001317 0  224.5 87.65000000001388 0  224.5 86.76250000001457 0  224.5 85.87500000001248 0  224.5 84.9874999999993 0  225.1666666666659 83.41333333333409 0  225.8333333333319 82.72666666666818 0  226.4999999999978 82.04000000000228 0  227.1666666666649 81.35333333333514 0  227.8333333333301 80.66666666667 0  228.4999999999942 79.980000000006 0  229.1666666666601 79.2933333333401 0  229.8333333333316 78.60666666666847 0  230.4999999999975 77.92000000000257 0  231.1666666666644 77.23333333333572 0  231.8333333333295 76.54666666667057 0  232.4999999999972 75.86000000000287 0  233.1666666666681 75.17333333333181 0  233.8333333333368 74.48666666666306 0  233.7499999999995 73.16666666666629 0  233.0000000000018 72.53333333333488 0  232.2500000000014 71.90000000000116 0  231.5000000000009 71.26666666666743 0  230.7500000000005 70.63333333333372 0  229.233333333333 68.75000000000006 0  230.0666666666665 68.60000000000004 0  230.8999999999995 68.45000000000009 0  231.7333333333325 68.30000000000015 0  232.566666666667 68.14999999999995 0  232.5499999999897 68.50000000000607 0  231.7 69 0  230.8500000000103 69.49999999999393 0  227.8300000000008 68.16000000000106 0  227.2600000000064 67.42000000000837 0  226.6900000000077 66.68000000001001 0  226.1200000000024 65.94000000000314 0  225.5500000000108 65.20000000001409 0  224.9800000000098 64.46000000001268 0  224.4100000000007 63.72000000000098 0  223.8399999999971 62.97999999999621 0  223.2699999999993 62.23999999999915 0  222.753846153846 60.56923076923239 0  222.8076923076921 59.63846153846478 0  222.8615384615381 58.70769230769827 0  222.9153846153842 57.77692307693071 0  222.9692307692302 56.84615384616315 0  223.0230769230761 55.91538461539836 0  223.0769230769224 54.98461538462665 0  223.1307692307688 54.05384615385345 0  223.184615384615 53.12307692308312 0  223.2384615384611 52.19230769231556 0  223.2923076923071 51.26153846154906 0  223.3461538461533 50.33076923077847 0  222.8400000000024 48.62000000000327 0  222.2800000000047 47.84000000000661 0  221.7200000000005 47.06000000000071 0  221.1600000000003 46.28000000000039 0  221.4500000000116 45.87500000000512 0  222.3 46.25 0  223.1499999999884 46.62499999999488 0  223.5600000000055 46.22000000000981 0  223.1199999999987 45.43999999999767 0  222.6800000000061 44.66000000001075 0  222.2399999999969 43.8799999999944 0  221.6400000000004 42.16000000000253 0  221.4800000000009 41.22000000000548 0  221.3200000000014 40.28000000000801 0  221.1600000000009 39.34000000000556 0  220.25 38.45 0  219.4749999999999 39.30000000000165 0  219.45 40.09999999999999 0  219.425 40.90000000000112 0  219.0166666666641 40.89999999999463 0  218.6333333333375 40.10000000000875 0  218.2500000000016 39.30000000000339 0  217.8666666666635 38.49999999999351 0  217.483333333337 37.70000000000762 0  216.1750000000165 36.78750000000201 0  215.2500000000275 36.67500000000335 0  214.3250000000385 36.56250000000469 0  213.4000000000277 36.45000000000337 0  212.4750000000059 36.33750000000072 0  211.5499999999838 36.22499999999803 0  210.6249999999835 36.11249999999799 0  209.6600000000001 35.14000000000318 0  209.6200000000001 34.28000000000268 0  209.5800000000001 33.42000000000284 0  209.5399999999998 32.55999999999681 0  208.6200000000117 31.34000000000476 0  207.7400000000138 30.98000000000564 0  206.8600000000162 30.62000000000662 0  205.9800000000174 30.26000000000711 0  204.2000000000054 30.02499999999925 0  203.2999999999946 30.15000000000076 0  202.3999999999945 30.27500000000076 0  201.2444444444438 31.32222222222468 0  200.9888888888895 32.24444444
[...]
<PointData  Vectors="f_12"> 
<DataArray  type="Float64"  Name="f_12"  NumberOfComponents="3" format="ascii">5.6288291313604444e-01 2.9351371003707988e-01 6.7725547817341314e-01  5.6283936967250181e-01 2.9334032635303264e-01 6.7722886911455371e-01  5.6275495978801349e-01 2.9299849523740118e-01 6.7718143125960328e-01  5.6269327236035260e-01 2.9274530169551710e-01 6.7714931798507394e-01  5.6204269939533313e-01 2.9006510621555098e-01 6.7681489651181082e-01  5.6123341393577642e-01 2.8677315644464918e-01 6.7636323117842312e-01  5.6101632606441409e-01 2.8588570539269575e-01 6.7623594037996038e-01  5.5804605925155937e-01 2.7478536380130864e-01 6.7382755326924360e-01  5.5264223314589189e-01 2.5626704905683922e-01 6.6758412094870379e-01  5.4868167459753614e-01 2.4451642757504014e-01 6.6117258467070716e-01  5.3024227587218975e-01 1.9945736109618387e-01 6.1817422128293864e-01  5.2289462170036349e-01 1.8558944274285563e-01 5.9537122368685369e-01  5.1114679529225338e-01 1.7242720247937279e-01 5.5052867733780819e-01  4.9061938846057973e-01 1.8074625605134340e-01 4.4439507385818949e-01  4.8620961005222491e-01 1.9891381986444803e-01 4.1063201549003159e-01  4.8493784509769927e-01 2.0983949547923950e-01 3.9756667188198364e-01  4.8484127646095687e-01 2.1154143193022848e-01 3.9608936966372632e-01  4.8474657172494579e-01 2.1379317010816262e-01 3.9431786027305277e-01  4.8467398727169742e-01 2.1567879483461408e-01 3.9283587700885408e-01  4.8467831056834454e-01 2.1564368963427594e-01 3.9287747541292845e-01  4.8467523556703346e-01 2.1569095506999000e-01 3.9283420772212335e-01  4.8467007135309625e-01 2.1581835134068952e-01 3.9273214989161193e-01  4.8468232400917061e-01 2.1612108531076590e-01 3.9261217364027534e-01  4.8467939683236128e-01 2.1840569911838978e-01 3.9126750079147665e-01  4.8464482010236887e-01 2.1859008327627846e-01 3.9096683138698846e-01  4.8465798961384421e-01 2.1905851247995062e-01 3.9076771453777814e-01  4.8468145329039652e-01 2.1856196306145148e-01 3.9118830539899319e-01  4.8466917839016516e-01 2.1900084555632862e-01 3.9086398360157054e-01  4.8466951717044493e-01 2.1899295905836363e-01 3.9087047375922274e-01  4.8471842347055122e-01 2.1784569572366311e-01 3.9181204798271624e-01  4.8488158729878722e-01 2.1473117092346139e-01 3.9453449227941700e-01  4.8528711774893951e-01 2.0863830218687782e-01 4.0031401327436755e-01  4.8550385624009496e-01 2.0591931695053223e-01 4.0308325341982715e-01  4.8557034507972541e-01 2.0513211703706780e-01 4.0390338916174662e-01  4.8558621278502612e-01 2.0492930149919331e-01 4.0410718145433816e-01  4.8547156012548781e-01 2.0596556986413386e-01 4.0287125086133496e-01  4.8534362872384951e-01 2.0712811707284678e-01 4.0148494203370444e-01  4.8529106205993361e-01 2.0535635146600187e-01 4.0214613265677007e-01  4.8528942371867728e-01 2.0487963100637507e-01 4.0239381968815741e-01  4.8530728255592115e-01 2.0433297418860930e-01 4.0279388793466520e-01  4.8524436469995069e-01 2.0457611042584001e-01 4.0229277728471763e-01  4.8523994517754532e-01 2.0467312772452867e-01 4.0221453467519502e-01  4.8528119204657894e-01 2.0446127992034652e-01 4.0257125642138025e-01  4.8525865357433401e-01 2.0467261809286991e-01 4.0232475335467244e-01  4.8515685761703559e-01 2.0584937498491870e-01 4.0109092252523343e-01  4.8495517176611125e-01 2.0936521116446921e-01 3.9799063771409415e-01  4.8476995086203578e-01 2.1364910181888669e-01 3.9453662572359649e-01  4.8474467264225407e-01 2.1457826388013343e-01 3.9386670325888529e-01  4.8466488284548198e-01 2.1798234734655930e-01 3.9147419889253782e-01  4.8460834336721592e-01 2.2130239111248681e-01 3.8924595245274546e-01  4.8460639776014852e-01 2.2283589241078641e-01 3.8833324729550256e-01  4.8464876607300744e-01 2.2380331372813070e-01 3.8798362168543915e-01  4.8475672600186126e-01 2.2292427213649049e-01 3.8907296619661452e-01  4.8486603647102755e-01 2.2193822274426983e-01 3.9024046962403264e-01  4.8506962737044934e-01 2.1983209460195366e-01 3.9258252641281621e-01  4.8569692447262686e-01 2.1453885987591628e-01 3.9910528232325759e-01  4.8919484048531575e-01 1.9892179652732780e-01 4.2706068308581913e-01  5.0137044592753810e-01 1.7820048355459828e-01 5.0173147948751662e-01  5.0414414430629895e-01 1.7629467079094779e-01 5.1650569457112872e-01  5.1737033335562099e-01 1.8495624735718177e-01 5.7282051812357526e-01  5.4062173675206970e-01 2.2336739884135637e-01 6.4479223023056353e-01  5.4360606436671111e-01 2.3018915893308237e-01 6.5160863714223716e-01  5.4484796035820371e-01 2.3362625144045468e-01 6.5406011139512621e-01  5.4885355857047036e-01 2.4510218276512460e-01 6.6130215624304345e-01  5.5346189676944413e-01 2.5907278007796025e-01 6.6849949800234942e-01  5.5921127054902553e-01 2.7912941712980971e-01 6.7478794914375384e-01  5.6101974991242853e-01 2.8605383178604421e-01 6.7614894801026215e-01  5.6144924497378024e-01 2.8774019364383580e-01 6.7642882809539562e-01  5.6165592316342805e-01 2.8856372743479147e-01 6.7655399109901704e-01  5.6197725780073848e-01 2.8985327018429274e-01 6.7674184682139360e-01  5.6192427980562520e-01 2.8963894747380031e-01 6.7671145393186705e-01  5.6231756361613783e-01 2.9123183918130163e-01 6.7693211782267737e-01  5.6268520894169405e-01 2.9272347649144675e-01 6.7713703110762669e-01  5.6272834340249434e-01 2.9289919415721288e-01 6.7716030507061886e-01  5.6240860782484814e-01 2.9159935094582862e-01 6.7698496137727193e-01  5.6277250954441538e-01 2.9307200144768453e-01 6.7718966907647615e-01  5.6283694864390199e-01 2.9333034562153371e-01 6.7722769844416220e-01  5.6285828492438084e-01 2.9341579058259826e-01 6.7724034872683581e-01  5.6287905173629948e-01 2.9349842578153656e-01 6.7725305433080663e-01  5.6288147395107624e-01 2.9350802823591970e-01 6.7725456337957657e-01  5.6288272559903541e-01 2.9351296909027008e-01 6.7725535941546511e-01  5.6288232511121850e-01 2.9351138762101159e-01 6.7725510515459686e-01  5.6288187323047967e-01 2.9350960422576994e-01 6.7725481745978455e-01  5.6288043553199674e-01 2.9350392448780244e-01 6.7725390638905825e-01  5.6287854937191295e-01 2.9349646605666457e-01 6.7725271629725370e-01  5.6287606089425124e-01 2.9348661798144426e-01 6.7725115183645357e-01  5.6287306188778108e-01 2.9347473679422215e-01 6.7724927555047776e-01  5.6286958533004572e-01 2.9346094613167711e-01 6.7724711313940988e-01  5.6286569235279282e-01 2.9344548147480404e-01 6.7724470762623146e-01  5.6286132847714843e-01 2.9342811686272008e-01 6.7724203241487213e-01  5.6285654087553749e-01 2.9340903335009383e-01 6.7723912115708262e-01  5.6285136098942767e-01 2.9338834916901757e-01 6.7723599802257328e-01  5.6284565738385450e-01 2.9336552919321951e-01 6.7723259145829673e-01  5.6283318776207969e-01 2.9331550954164187e-01 6.7722523646245392e-01  5.6282687979957025e-01 2.9329014811973869e-01 6.7722155724558775e-01  5.6282020649948761e-01 2.9326327220551790e-01 6.7721769802452569e-01  5.6281315545513100e-01 2.9323482899154957e-01 6.7721365361756169e-01  5.6280575745119643e-01 2.9320493897601907e-01 6.7720944427480456e-01  5.6279806932709453e-01 2.9317383020939841e-01 6.7720510345557638e-01  5.6279003372516911e-01 2.9314126179688099e-01 6.7720060577118013e-01  5.6278178708392501e-01 2.9310778447527208e-01 6.7719602944294877e-01  5.6277356009124047e-01 2.9307433416477441e-01 6.7719150319094712e-01  5.6276568775164693e-01 2.9304227538599009e-01 6.7718721016600558e-01  5.6275890719698118e-01 2.9301461997145939e-01 6.7718354535852643e-01  5.6275001155401061e-01 2.9297821157502429e-01 6.7717883817514390e-01  5.6273878281812240e-01 2.9293215377238530e-01 6.7717297494014195e-01  5.6272120772085399e-01 2.9286002128109473e-01 6.7716382545090292e-01  5.6265529858367780e-01 2.9258925854697998e-01 6.7712964428998046e-01  5.6261893009373276e-01 2.9243968429457845e-01 6.7711087044783502e-01  5.6258067295286851e-01 2.9228220922538051e-01 6.7709119668268503e-01  5.6253963057424783e-01 2.9211314233465879e-01 6.7707016198998271e-01  5.6249543342806896e-01 2.9193096721704148e-01 6.7704756967067481e-01  5.6244790560638225e-01 2.9173497402732890e-01 6.7702331431997509e-01  5.6239700258620406e-01 2.9152500443309820e-01 6.7699734952395940e-01  5.6234277289845569e-01 2.9130129485819323e-01 6.7696966976918271e-01  5.6228543766182482e-01 2.9106480545029051e-01 6.7694034849569074e-01  5.6222492695532644e-01 2.9081531308422010e-01 6.7690930833312501e-01  5.6216248188714091e-01 2.9055799632616613e-01 6.7687713782356562e-01  5.6209947077088329e-01 2.9029857550563631e-01 6.7684449536584679e-01  5.6198133116808491e-01 2.8981319735824318e-01 6.7678261658304384e-01  5.6190271997673191e-01 2.8949105212158299e-01 6.7674084658787548e-01  5.6181203226580612e-01 2.8912016178765876e-01 6.7669203255746890e-01  5.6171136483415662e-01 2.8870944940562276e-01 6.7663701243731156e-01  5.6160234004232645e-01 2.8826583086345786e-01 6.7657638574619638e-01  5.6148677590477580e-01 2.8779692976078880e-01 6.7651092140781655e-01  5.6136496473920783e-01 2.8730409297441223e-01 6.7644059035834370e-01  5.6113426364754970e-01 2.8637227814880506e-01 6.7630448557018019e-01  5.6106770983169696e-01 2.8610315057280827e-01 6.7626463464583930e-01  5.6102901866195354e-01 2.8594567419514255e-01 6.7624155379885542e-01  5.6100812798623756e-01 2.8585962134985221e-01 6.7622926794742255e-01  5.6100208870256130e-01 2.8583306186021118e-01 6.7622610516720483e-01  5.6100538257826682e-01 2.8584411510081453e-01 6.7622864488288092e-01  5.6101241448006367e-01 2.8587066870306305e-01 6.7623337168406006e-01  5.6100729742209166e-01 2.8585062868443784e-01 6.7623007783836764e-01  5.6097260475328126e-01 2.8571576221925715e-01 6.7620748673961406e-01  5.6090396675002685e-01 2.8544921831295317e-01 6.7616238894905989e-01  5.6079453478197305e-01 2.8502545763381137e-01 6.7608933536643978e-01  5.6063392915556598e-01 2.8440630981252490e-01 6.7597949901886167e-01  5.6041099308569520e-01 2.8355214413474827e-01 6.7582195976912252e-01  5.6010935347686741e-01 2.8240589996714971e-01 6.7559933171449937e-01  5.5969963001205536e-01 2.8086497701436608e-01 6.7527986444961841e-01  5.5910891861357126e-01 2.7867184387101818e-01 6.7478670866008106e-01  5.5670080634319274e-01 2.6996430704088914e-01 6.7249973273050867e-01  5.5567085249790038e-01 2.6635293178865660e-01 6.7139057487008857e-01  5.5471811026357343e-01 2.6308980006865351e-01 6.7028101257352901e-01  5.5384953964111683e-01 2.6018285326674090e-01 6.6920089705166608e-01  5.5311031682736800e-01 2.5776210381968878e-01 6.6823092386543315e-01  5.5232337896666817e-01 2.5528585297164752e-01 6.6711246561272408e-01  5.5162192684475153e-01 2.5315822890143841e-01 6.6604041532473257e-01  5.5052541301754765e-01 2.4989415622757558e-01 6.6428432272788251e-01  5.4600947954191825e-01 2.3695565824793860e-01 6.5633615892128794e-01  5.4382335698119511e-01 2.3100885764954368e-01 6.5204666800420796e-01  5.4172827574389093e-01 2.2554193980891671e-01 6.4762264889823440e-01  5.3963739100726760e-01 2.2031684922805925e-01 6.4290350969197263e-01  5.3751306446407265e-01 2.1524307449664470e-01 6.3780085495407746e-01  5.3532248240259750e-01 2.1024603295816388e-01 6.3222558012966024e-01  5.3299845067674190e-01 2.0518573582257754e-01 6.2597830002732002e-01  5.2770207260497526e-01 1.9438775740963654e-01 6.1065482050952780e-01  5.2591428082253988e-01 1.9096199633694799e-01 6.0515131238556263e-01  5.2452861814164675e-01 1.8841568862244362e-01 6.0074505862784822e-01  5.2349073646346012e-01 1.8658870793097548e-01 5.9735845034606672e-01  5.2235732500875409e-01 1.8477806830738011e-01 5.9352073330166344e-01  5.2146893504379410e-01 1.8350871614457306e-01 5.9040659095432724e-01  5.2037751969559898e-01 1.8202803419430383e-01 5.8650917227677546e-01  5.1914233078589211e-01 1.8044111310515731e-01 5.8200857018961505e-01  5.1782415118641367e-01 1.7884972333972138e-01 5.7710099502567880e-01  5.1645135461483693e-01 1.7730081990819346e-01 5.7187459190550782e-01  5.1505433843773640e-01 1.7583947081315224e-01 5.6643360482382243e-01  5.1366734021560234e-01 1.7450908467894974e-01 5.6090743098400242e-01  5.1233208090907512e-01 1.7334755676597588e-01 5.5546649903440704e-01  5.0984209063937314e-01 1.7156911970062041e-01 5.4495084703785279e-01  5.0838070321948325e-01 1.7077516207484733e-01 5.3854567086576777e-01  5.0686984645180722e-01 1.7013113094324053e-01 5.3175847197297932e-01  5.0533899587447151e-01 1.6967258200998159e-01 5.2469966420517733e-01  5.0381408098120295e-01 1.6941750242674897e-01 5.1748368835539049e-01  5.0231507555234911e-01 1.6938278809461332e-01 5.1019851821646822e-01  5.0085392228667247e-01 1.6957530485671438e-01 5.0290200042175093e-01  4.9944260438180332e-01 1.6999699861599335e-01 4.9565816976504184e-01  4.9809183786798955e-01 1.7064466166642450e-01 4.8853004036724401e-01  4.9680630774629575e-01 1.7151365767170265e-01 4.8155055280011921e-01  4.9559065413062509e-01 1.7259319869026868e-01 4.7475796606657672e-01  4.9444924163912995e-01 1.7387034988158231e-01 4.6819058625859122e-01  4.9338044134909959e-01 1.7533586019747854e-01 4.6185176134155365e-01  4.9239214621589777e-01 1.7697833720993225e-01 4.5579635401507329e-01  4.9147393852628651e-01 1.7878270795695098e-01 4.4998597762788478e-01  4.8988522877835855e-01 1.8269752207872048e-01 4.3942438067383538e-01  4.8922401584885616e-01 1.8471148818370195e-01 4.3478816363576817e-01  4.8862292881242753e-01 1.8679003042050510e-01 4.3042196803716709e-01  4.8807844955198509e-01 1.8893582202474618e-01 4.2630776964109168e-01  4.8758229827250454e-01 1.9114589090587086e-01 4.2240629206518954e-01  4.8712408473238100e-01 1.9344459236728798e-01 4.1864990840755184e-01  4.8668612696476532e-01 1.9591633448552487e-01 4.1489699252066020e-01  4.8581671299866258e-01 2.0164104480125505e-01 4.0696529404480930e-01  4.8557062164627807e-01 2.0351770808530267e-01 4.0457084260449633e-01  4.8539194781942746e-01 2.0501197907380431e-01 4.0275669399023256e-01  4.8525645822931179e-01 2.0625128615370997e-01 4.0132061890509380e-01  4.8515188053168162e-01 2.0729420594491590e-01 4.0016351765274616e-01  4.8507137587388671e-01 2.0816752102218886e-01 3.9923337622862626e-01  4.8501020601882427e-01 2.0888770845840729e-01 3.9849516546927150e-01  4.8496539681424233e-01 2.0945908167243674e-01 3.9793015096904605e-01  4.8491917297448139e-01 2.1013251718894035e-01 3.9730084709961094e-01  4.8489487870971543e-01 2.1054050311293412e-01 3.9694025525294607e-01  4.8486941455857563e-01 2.1099982018449082e-01 3.9654488066031368e-01  4.8481640549759025e-01 2.1204830069796166e-01 3.9567153752834539e-01  4.8479973414982991e-01 2.1241092944809808e-01 3.9537900834506934e-01  4.8478723913673638e-01 2.1270191870750610e-01 3.9514921884638599e-01  4.8477731863311035e-01 2.1294830213164889e-01 3.9495824288308534e-01  4.8476913128473786e-01 2.1316324950778687e-01 3.9479404190366285e-01  4.8476191175036371e-01 2.1336176824452444e-01 3.9464395411205228e-01  4.8475499493752894e-01 2.1355637303602124e-01 3.9449723505908985e-01  4.8473769089001739e-01 2.1403657508500318e-01 3.9413126241483681e-01  4.8473047506566846e-01 2.1423013915480077e-01 3.9398139143375194e-01  4.8472370836512790e-01 2.1440867077270509e-01 3.9384210809327941e-01  4.8471716399809212e-01 2.1457913077053747e-01 3.9370834221590650e-01  4.8471081531207882e-01 2.1474293402805014e-01 3.9357923613013407e-01  4.8470470596838733e-01 2.1489950582670045e-01 3.9345543186952264e-01  4.8469891035606899e-01 2.1504733933080764e-01 3.9333825955533003e-01  4.8469351833955104e-01 2.1518443512415764e-01 3.9322940944397544e-01  4.8468862140195107e-01 2.1530869329504537e-01 3.9313063225048600e-01  4.8468431240677035e-01 2.1541787911770247e-01 3.9304375866973951e-01  4.8468067164908918e-01 2.1551005231012052e-01 3.9297037503837812e-01  4.8467777647119603e-01 2.1558327679718206e-01 3.9291204560605497e-01  4.8467568449107540e-01 2.1563612029114479e-01 3.9286992981216456e-01  4.8467442554416662e-01 2.1566788559640732e-01 3.9284460301324492e-01  4.8467412148856193e-01 2.1567651119515996e-01 3.9283790004898850e-01  4.8467437782921563e-01 2.1567334340410141e-01 3.9284103050763747e-01  4.8467472691380031e-01 2.1567019463756551e-01 3.9284457814935653e-01  4.8467513941071827e-01 2.1566787626657599e-01 3.9284790966598976e-01  4.8467546983037985e-01 2.1567038792686838e-01 3.9284789996965985e-01  4.8467562173315781e-01 2.1569251725304509e-01 3.9283505171944733e-01  4.8467367646864062e-01 2.1573380649065901e-01 3.9280071167522496e-01  4.8467215447860540e-01 2.1576902727069092e-01 3.9277205717975688e-01  4.8467106789757364e-01 2.1579467798825852e-01 3.9275128897829470e-01  4.8467039231903236e-01 2.1581072292000078e-01 3.9273831659941549e-01  4.8467045700524147e-01 2.1580918536073015e-01 3.9273955950310063e-01  4.8467136342912620e-01 2.1578761486803177e-01 3.9275699074196624e-01  4.8467285230229956e-01 2.1575184082472387e-01 3.9278583081957796e-01  4.8468063295168001e-01 2.1561703489927048e-01 3.9290467292175191e-01  4.8468208451926581e-01 2.1561134036743285e-01 3.9291503888469392e-01  4.8468319920660086e-01 2.1561712070708117e-01 3.9291688995700685e-01  4.8468410976880921e-01 2.1563245197184305e-01 3.9291204900131621e-01  4.8468482376252670e-01 2.1565844264592784e-01 3.9289991104384031e-01  4.8468536273049051e-01 2.1569580548963715e-01 3.9288018083107051e-01  4.8468565290207749e-01 2.1574835458674829e-01 3.9285024247987083e-01  4.8468553145261878e-01 2.1582321681003253e-01 3.9280506570956536e-01  4.8468474848491244e-01 2.1593250357168042e-01 3.9273622545727538e-01  4.8467730126820130e-01 2.1639192128128909e-01 3.9242625729810182e-01  4.8467216956135362e-01 2.1664620674069754e-01 3.9224965389170940e-01  4.8466701027331982e-01 2.1689907173604647e-01 3.9207382224061976e-01  4.8466195272563756e-01 2.1714984021239489e-01 3.9189982882834884e-01  4.8465728848655754e-01 2.1739202891170187e-01 3.9173301884504907e-01  4.8465308716174305e-01 2.1762342100656848e-01 3.9157506405176334e-01  4.8464949171749561e-01 2.1783954275881409e-01 3.9142935400092443e-01  4.8464660288026762e-01 2.1803658019630759e-01 3.9129866755068454e-01  4.8464451421193172e-01 2.1821055120784819e-01 3.9118584591575889e-01  4.8464326168344046e-01 2.1835827422191112e-01 3.9109294656573690e-01  4.8464295288941606e-01 2.1847421250806789e-01 3.9102379474158960e-01  4.8464364812529842e-01 2.1855221381402015e-01 3.9098230971242198e-01  4.8464830305847928e-01 2.1857409328521482e-01 3.9099557576110577e-01  4.8465436457998107e-01 2.1852412416988895e-01 3.9105850158520633e-01  4.8466231644770652e-01 2.1845032194452904e-01 3.9114588445637033e-01  4.8467137010508327e-01 2.1837923473103907e-01 3.9123789541614501e-01  4.8466941667365843e-01 2.1874451775327319e-01 3.9101451365834716e-01  4.8466307310404716e-01 2.1892447553459815e-01 3.9087423691009027e-01  4.8465940827725273e-01 2.1902168056953533e-01 3.9079711017436597e-01  4.8465932997482547e-01 2.1902374907276126e-01 3.9079546701779366e-01  4.8466261879333622e-01 2.1894054153538639e-01 3.9086234303171824e-01  4.8466781552539123e-01 2.1881772540425468e-01 3.9096296815969211e-01  4.8467437681084191e-01 2.1868236454439524e-01 3.9107854568280798e-01  4.8468499698188194e-01 2.1853720071652330e-01 3.9122260065395048e-01  4.8468299605142690e-01 2.1862752878145170e-01 3.9115881016452564e-01  4.8467712794999129e-01 2.1879309808428535e-01 3.9102952547557329e-01  4.8467148145223138e-01 2.1894135725180097e-01 3.9091153991496419e-01  4.8466949201753595e-01 2.1899321578611350e-01 3.9087018403704038e-01  4.8467162588115681e-01 2.1894030516809304e-01 3.9091295503744106e-01  4.8467777539096946e-01 2.1878850732690000e-01 3.9103580034219598e-01  4.8469060661931929e-01 2.1848272982466072e-01 3.9128565823922506e-01  4.8476659768110031e-01 2.1686578711280080e-01 3.9265159236442271e-01  4.8479903133903429e-01 2.1623684344429392e-01 3.9319866497078992e-01  4.8482634096723293e-01 2.1572501729474572e-01 3.9364876996783715e-01  4.8485024931280546e-01 2.1528796212738829e-01 3.9403623457876297e-01  4.8486977398156506e-01 2.1493875898535331e-01 3.9434804770194332e-01  4.8489619176530085e-01 2.1448008827164733e-01 3.9476160349643863e-01  4.8492303438271150e-01 2.1402736337407563e-01 3.9517377682156285e-01  4.8495876119