<?xml version="1.0"?>
<VTKFile type="UnstructuredGrid"  version="0.1"  >
<UnstructuredGrid>
<Piece  NumberOfPoints="7288" NumberOfCells="14083">
<Points>
<DataArray  type="Float64"  NumberOfComponents="3"  format="ascii">239.8 188 0  250.2 180 0  258.2 172.4 0  257 169.4 0  259.9 157.4 0  258.7 150.3 0  261 143.5 0  251.7 144.4 0  250 138.7 0  247 138.1 0  245.2 130.8 0  247.3 126.4 0  242.7 118.6 0  231.2 107.7 0  226 102.4 0  226.5 93.90000000000001 0  224.5 91.19999999999999 0  224.5 84.09999999999999 0  234.5 73.80000000000001 0  228.4 68.90000000000001 0  230 70 0  233.4 68 0  222.7 61.5 0  220.6 45.5 0  223.4 49.40000000000001 0  224 47 0  221.8 43.09999999999999 0  221 38.40000000000001 0  219.5 38.5 0  219.4 41.69999999999999 0  217.1 36.90000000000001 0  209.7 36 0  209.5 31.69999999999999 0  205.1 29.90000000000001 0  201.5 30.40000000000001 0  199.2 38.69999999999999 0  201.8 41.40000000000001 0  194.8 53.80000000000001 0  196.1 57.69999999999999 0  193 59 0  191.4 66.09999999999999 0  193.5 66.5 0  194.1 64.40000000000001 0  195.6 64.69999999999999 0  195.4 72.40000000000001 0  199.5 77.30000000000001 0  197.7 86.90000000000001 0  200.6 87.5 0  201.5 91 0  198 94.80000000000001 0  198.6 100 0  197.3 105.4 0  198 109.5 0  197 112.7 0  198.3 116.1 0  201.3 122 0  207.2 121 0  208.1 126.7 0  205.6 127.9 0  209.1 134.9 0  210.9 144.4 0  210.1 147.9 0  213 148.4 0  215.4 149.3 0  215.1 152.8 0  219.9 159.7 0  220.3 163.2 0  218.7 164.9 0  219.9 166.7 0  221.9 169.7 0  220 170.3 0  224.9 174.7 0  229.8 177.4 0  229.7 181 0  228 172.9 0  239 178 0  240.4 180 0  239 181.5 0  241.2 185.9 0  242.95 187.99 0  240.5875 187.9975 0  241.375 187.995 0  242.1625 187.9925 0  243.6090909090879 187.2636363636397 0  244.2681818181765 186.5372727272785 0  244.9272727272692 185.810909090913 0  245.5863636363531 185.0845454545571 0  246.245454545445 184.3581818181923 0  246.9045454545351 183.6318181818295 0  247.5636363636303 182.9054545454612 0  248.2227272727197 182.1790909090992 0  248.8818181818179 181.4527272727275 0  249.5409090909066 180.7263636363664 0  250.8666666666961 179.3666666666387 0  251.5333333334033 178.7333333332668 0  252.2000000000994 178.0999999999055 0  252.8666666668011 177.466666666539 0  253.5333333335083 176.8333333331671 0  254.2000000002044 176.1999999998058 0  254.8666666669005 175.5666666664445 0  255.5333333336077 174.9333333330727 0  256.2000000002685 174.2999999997449 0  256.8666666668457 173.6666666664966 0  257.5333333334283 173.033333333243 0  257.9000000000077 171.6500000000191 0  257.6000000000015 170.9000000000038 0  257.2999999999954 170.1499999999885 0  257.2230769230778 168.4769230769195 0  257.4461538461543 167.5538461538442 0  257.6692307692309 166.6307692307688 0  257.8923076923074 165.7076923076935 0  258.115384615384 164.7846153846181 0  258.3384615384605 163.8615384615427 0  258.5615384615395 162.9384615384572 0  258.784615384616 162.0153846153819 0  259.0076923076926 161.0923076923065 0  259.2307692307691 160.1692307692311 0  259.4538461538457 159.2461538461558 0  259.6769230769222 158.3230769230804 0  259.750000000001 156.512500000006 0  259.6000000000014 155.6250000000082 0  259.4500000000029 154.7375000000176 0  259.3000000000018 153.8500000000108 0  259.1500000000007 152.962500000004 0  259.0000000000004 152.0750000000026 0  258.849999999999 151.187499999994 0  258.9875000000052 149.4499999999846 0  259.275000000002 148.5999999999941 0  259.5624999999954 147.7500000000135 0  259.849999999995 146.900000000015 0  260.1374999999945 146.0500000000164 0  260.4249999999913 145.2000000000259 0  260.7124999999948 144.3500000000154 0  260.0700000000398 143.5899999999961 0  259.1400000000573 143.6799999999944 0  258.2100000000351 143.7699999999966 0  257.2800000000262 143.8599999999975 0  256.350000000011 143.9499999999989 0  255.4199999999881 144.0400000000011 0  254.4899999999726 144.1300000000026 0  253.5599999999944 144.2200000000005 0  252.6300000000009 144.3099999999999 0  251.4166666666658 143.4499999999971 0  251.1333333333388 142.5000000000182 0  250.8500000000015 141.5500000000051 0  250.5666666666612 140.5999999999818 0  250.2833333333342 139.6500000000029 0  249.2500000000005 138.5500000000001 0  248.5000000000011 138.4000000000002 0  247.7499999999995 138.2499999999999 0  246.7750000000005 137.1875000000023 0  246.5500000000021 136.2750000000085 0  246.3250000000036 135.3625000000147 0  246.1000000000042 134.450000000017 0  245.8750000000022 133.5375000000088 0  245.650000000003 132.6250000000124 0  245.4250000000046 131.7125000000187 0  245.619999999996 129.9200000000084 0  246.0399999999992 129.0400000000017 0  246.4599999999987 128.1600000000028 0  246.8800000000001 127.2799999999997 0  246.8399999999988 125.6199999999979 0  246.3799999999984 124.8399999999973 0  245.9199999999991 124.0599999999985 0  245.4600000000036 123.2800000000062 0  245.0000000000049 122.5000000000082 0  244.5400000000036 121.7200000000062 0  244.0800000000033 120.9400000000056 0  243.6200000000016 120.1600000000027 0  243.1600000000012 119.3800000000021 0  241.9812499999996 117.9187499999997 0  241.2625000000007 117.2375000000007 0  240.5437500000017 116.5562500000017 0  239.8250000000041 115.875000000004 0  239.1062500000066 115.1937500000063 0  238.3875000000076 114.5125000000072 0  237.6687500000087 113.8312500000082 0  236.9500000000083 113.1500000000079 0  236.231250000008 112.4687500000076 0  235.512500000009 111.7875000000085 0  234.7937500000045 111.1062500000043 0  234.0750000000042 110.4250000000039 0  233.3562500000066 109.7437500000062 0  232.6375000000021 109.062500000002 0  231.9187500000031 108.381250000003 0  230.5500000000004 107.0375000000004 0  229.9000000000021 106.3750000000021 0  229.2500000000038 105.7125000000039 0  228.6000000000041 105.0500000000042 0  227.9500000000018 104.3875000000018 0  227.2999999999952 103.7249999999951 0  226.6500000000024 103.0625000000024 0  226.0555555555555 101.4555555555556 0  226.1111111111111 100.5111111111111 0  226.1666666666667 99.56666666666668 0  226.2222222222222 98.62222222222223 0  226.2777777777778 97.67777777777778 0  226.3333333333333 96.73333333333335 0  226.3888888888889 95.78888888888889 0  226.4444444444445 94.84444444444446 0  226 93.22499999999999 0  225.5000000000026 92.55000000000358 0  225.0000000000026 91.87500000000358 0  224.5 90.31250000000068 0  224.5 89.4250000000097 0  224.5 88.53750000001317 0  224.5 87.65000000001388 0  224.5 86.76250000001457 0  224.5 85.87500000001248 0  224.5 84.9874999999993 0  225.1666666666659 83.41333333333409 0  225.8333333333319 82.72666666666818 0  226.4999999999978 82.04000000000228 0  227.1666666666649 81.35333333333514 0  227.8333333333301 80.66666666667 0  228.4999999999942 79.980000000006 0  229.1666666666601 79.2933333333401 0  229.8333333333316 78.60666666666847 0  230.4999999999975 77.92000000000257 0  231.1666666666644 77.23333333333572 0  231.8333333333295 76.54666666667057 0  232.4999999999972 75.86000000000287 0  233.1666666666681 75.17333333333181 0  233.8333333333368 74.48666666666306 0  233.7499999999995 73.16666666666629 0  233.0000000000018 72.53333333333488 0  232.2500000000014 71.90000000000116 0  231.5000000000009 71.26666666666743 0  230.7500000000005 70.63333333333372 0  229.233333333333 68.75000000000006 0  230.0666666666665 68.60000000000004 0  230.8999999999995 68.45000000000009 0  231.7333333333325 68.30000000000015 0  232.566666666667 68.14999999999995 0  232.5499999999897 68.50000000000607 0  231.7 69 0  230.8500000000103 69.49999999999393 0  227.8300000000008 68.16000000000106 0  227.2600000000064 67.42000000000837 0  226.6900000000077 66.68000000001001 0  226.1200000000024 65.94000000000314 0  225.5500000000108 65.20000000001409 0  224.9800000000098 64.46000000001268 0  224.4100000000007 63.72000000000098 0  223.8399999999971 62.97999999999621 0  223.2699999999993 62.23999999999915 0  222.753846153846 60.56923076923239 0  222.8076923076921 59.63846153846478 0  222.8615384615381 58.70769230769827 0  222.9153846153842 57.77692307693071 0  222.9692307692302 56.84615384616315 0  223.0230769230761 55.91538461539836 0  223.0769230769224 54.98461538462665 0  223.1307692307688 54.05384615385345 0  223.184615384615 53.12307692308312 0  223.2384615384611 52.19230769231556 0  223.2923076923071 51.26153846154906 0  223.3461538461533 50.33076923077847 0  222.8400000000024 48.62000000000327 0  222.2800000000047 47.84000000000661 0  221.7200000000005 47.06000000000071 0  221.1600000000003 46.28000000000039 0  221.4500000000116 45.87500000000512 0  222.3 46.25 0  223.1499999999884 46.62499999999488 0  223.5600000000055 46.22000000000981 0  223.1199999999987 45.43999999999767 0  222.6800000000061 44.66000000001075 0  222.2399999999969 43.8799999999944 0  221.6400000000004 42.16000000000253 0  221.4800000000009 41.22000000000548 0  221.3200000000014 40.28000000000801 0  221.1600000000009 39.34000000000556 0  220.25 38.45 0  219.4749999999999 39.30000000000165 0  219.45 40.09999999999999 0  219.425 40.90000000000112 0  219.0166666666641 40.89999999999463 0  218.6333333333375 40.10000000000875 0  218.2500000000016 39.30000000000339 0  217.8666666666635 38.49999999999351 0  217.483333333337 37.70000000000762 0  216.1750000000165 36.78750000000201 0  215.2500000000275 36.67500000000335 0  214.3250000000385 36.56250000000469 0  213.4000000000277 36.45000000000337 0  212.4750000000059 36.33750000000072 0  211.5499999999838 36.22499999999803 0  210.6249999999835 36.11249999999799 0  209.6600000000001 35.14000000000318 0  209.6200000000001 34.28000000000268 0  209.5800000000001 33.42000000000284 0  209.5399999999998 32.55999999999681 0  208.6200000000117 31.34000000000476 0  207.7400000000138 30.98000000000564 0  206.8600000000162 30.62000000000662 0  205.9800000000174 30.26000000000711 0  204.2000000000054 30.02499999999925 0  203.2999999999946 30.15000000000076 0  202.3999999999945 30.27500000000076 0  201.2444444444438 31.32222222222468 0  200.9888888888895 32.24444444
[...]
<PointData  Vectors="f_12"> 
<DataArray  type="Float64"  Name="f_12"  NumberOfComponents="3" format="ascii">1.1950738916256146e-02 1.3838404669260687e-02 6.2431906614785941e-03  1.1950738916256148e-02 1.3838404669260685e-02 6.2431906614785933e-03  1.1950738916256148e-02 1.3838404669260689e-02 6.2431906614785933e-03  1.1950738916256145e-02 1.3838404669260673e-02 6.2431906614785881e-03  1.1950738916256145e-02 1.3838404669260685e-02 6.2431906614785915e-03  1.1950738916256141e-02 1.3838404669260682e-02 6.2431906614785924e-03  1.1950738916256143e-02 1.3838404669260682e-02 6.2431906614785915e-03  1.1950738916256146e-02 1.3838404669260691e-02 6.2431906614785959e-03  1.1950738916256145e-02 1.3838404669260684e-02 6.2431906614785933e-03  1.1950738916256141e-02 1.3838404669260675e-02 6.2431906614785933e-03  1.1950738916256138e-02 1.3838404669260734e-02 6.2431906614786835e-03  1.1950738916256037e-02 1.3838404669262993e-02 6.2431906614835832e-03  1.1950738881738272e-02 1.3838405454075954e-02 6.2431923209164200e-03  2.5944838348480920e-03 2.2569467694259018e-01 4.7859804133320738e-01  2.9162802937967173e-03 2.2074467465241918e-01 5.0591137647751439e-01  2.3677121805209421e-03 1.6853547923118836e-01 4.9836136134052006e-01  3.3729342659350658e-03 2.6010768135755702e-01 4.9600258341318010e-01  2.6766518011537405e-03 2.2069801827925989e-01 5.4111913449941340e-01  3.2708861525140428e-03 1.8582520269669128e-01 4.5764802190772136e-01  2.9156908230252403e-03 2.4797547000963971e-01 4.6817810956274813e-01  2.6941314003884318e-03 1.8354001754033697e-01 4.3948113483942230e-01  2.6782225678016612e-03 2.1015861898990565e-01 5.0099854007956068e-01  3.5719619785636804e-03 2.1024878260649021e-01 4.1773540726534236e-01  3.6726057578462192e-03 3.0138440863266758e-01 5.8942217495961946e-01  3.8327904126928482e-03 1.2963145722839109e-01 4.5058717391662284e-01  4.0719463060700277e-03 2.7531726984595212e-01 5.2012275429712129e-01  2.3393135038226299e-03 2.1536561871300197e-01 3.9410303754485010e-01  2.9752237567754079e-03 1.9454767321551322e-01 4.7347037901580102e-01  3.1880651541911719e-03 2.5067409156890280e-01 5.2335425670484892e-01  2.8141949042381795e-03 1.9468111684456160e-01 4.4968113210413679e-01  2.5096610889867007e-03 1.9237864991468373e-01 5.4484194059762181e-01  2.1668722789501970e-03 2.6100960580330784e-01 4.7514241178760114e-01  3.8749503824513300e-03 2.8836243290941599e-01 5.7574036674586548e-01  2.7140830439724736e-03 1.5552699568628947e-01 3.8481170169827045e-01  2.4638207830015744e-03 2.0182233834980901e-01 5.1011828048530283e-01  2.9761727464811170e-03 3.0745382972209140e-01 5.3427316143393699e-01  3.6068844914961770e-03 1.8538705914150758e-01 4.6423745357663665e-01  3.1940869004145932e-03 2.3180685369962761e-01 5.7669043873446302e-01  2.4123509266656719e-03 2.5021308665911224e-01 4.6902920465753911e-01  3.0612569245466129e-03 2.2498386859982994e-01 4.5507098510821792e-01  3.5919793275263723e-03 2.2621519599509540e-01 5.7755334938518754e-01  4.0603644006351009e-03 1.7603239219046093e-01 5.3106438074466400e-01  2.9949541085832450e-03 2.5794241905757997e-01 4.5822030009347858e-01  3.7528426922496540e-03 2.9730032398102013e-01 4.7042354064307784e-01  2.3170902704140470e-03 2.2962046569204084e-01 5.0561513577769168e-01  2.3065039796602307e-03 1.8441793856355390e-01 5.2223200130583214e-01  2.8520366954878709e-03 3.3046803139852199e-01 5.5419964402327382e-01  2.7814786561242738e-03 1.7694414789417487e-01 5.0294430187655914e-01  2.5509888554570070e-03 2.2447024259886747e-01 4.6901578451816228e-01  3.5338693670908254e-03 1.7011944926835479e-01 5.6819319463838924e-01  3.3324120710783584e-03 1.9642662945541961e-01 4.3355378568335246e-01  3.3615486635278718e-03 2.8175147594175781e-01 5.2716101704489871e-01  3.8208251562809343e-03 1.9362171540358245e-01 4.3033212918051572e-01  1.1608234863103582e-02 2.1438811612485006e-02 2.4509450565208344e-02  1.1946370778348592e-02 1.3930760328233328e-02 6.4732159400116545e-03  1.1950737685861927e-02 1.3838436288519280e-02 6.2432507926894901e-03  1.1950736820450529e-02 1.3838462969514475e-02 6.2433016529958264e-03  1.1950738915964999e-02 1.3838404676828637e-02 6.2431906768177789e-03  1.1950738916252241e-02 1.3838404669361815e-02 6.2431906616839594e-03  1.1950738916256145e-02 1.3838404669260727e-02 6.2431906614786835e-03  1.1950738916256145e-02 1.3838404669260685e-02 6.2431906614785933e-03  1.1950738916256150e-02 1.3838404669260687e-02 6.2431906614785933e-03  1.1950738916256146e-02 1.3838404669260682e-02 6.2431906614785933e-03  1.1950738916256138e-02 1.3838404669260687e-02 6.2431906614785950e-03  1.1950738916256143e-02 1.3838404669260682e-02 6.2431906614785907e-03  1.1950738916256131e-02 1.3838404669260691e-02 6.2431906614785933e-03  1.1950738916256145e-02 1.3838404669260680e-02 6.2431906614785915e-03  1.1950738916256148e-02 1.3838404669260687e-02 6.2431906614785933e-03  1.1950738916256150e-02 1.3838404669260691e-02 6.2431906614785959e-03  1.1950738916256151e-02 1.3838404669260692e-02 6.2431906614785941e-03  1.1950738916256146e-02 1.3838404669260691e-02 6.2431906614785933e-03  1.1950738916256150e-02 1.3838404669260687e-02 6.2431906614785941e-03  1.1950738916256146e-02 1.3838404669260684e-02 6.2431906614785924e-03  1.1950738916256143e-02 1.3838404669260684e-02 6.2431906614785924e-03  1.1950738916256148e-02 1.3838404669260675e-02 6.2431906614785881e-03  1.1950738916256139e-02 1.3838404669260680e-02 6.2431906614785881e-03  1.1950738916256143e-02 1.3838404669260696e-02 6.2431906614785950e-03  1.1950738916256148e-02 1.3838404669260691e-02 6.2431906614785915e-03  1.1950738916256146e-02 1.3838404669260685e-02 6.2431906614785933e-03  1.1950738916256145e-02 1.3838404669260689e-02 6.2431906614785933e-03  1.1950738916256150e-02 1.3838404669260691e-02 6.2431906614785950e-03  1.1950738916256150e-02 1.3838404669260691e-02 6.2431906614785941e-03  1.1950738916256150e-02 1.3838404669260694e-02 6.2431906614785933e-03  1.1950738916256146e-02 1.3838404669260687e-02 6.2431906614785941e-03  1.1950738916256151e-02 1.3838404669260689e-02 6.2431906614785950e-03  1.1950738916256150e-02 1.3838404669260691e-02 6.2431906614785950e-03  1.1950738916256141e-02 1.3838404669260687e-02 6.2431906614785959e-03  1.1950738916256148e-02 1.3838404669260689e-02 6.2431906614785950e-03  1.1950738916256148e-02 1.3838404669260687e-02 6.2431906614785933e-03  1.1950738916256150e-02 1.3838404669260689e-02 6.2431906614785933e-03  1.1950738916256150e-02 1.3838404669260694e-02 6.2431906614785959e-03  1.1950738916256150e-02 1.3838404669260691e-02 6.2431906614785950e-03  1.1950738916256150e-02 1.3838404669260689e-02 6.2431906614785933e-03  1.1950738916256157e-02 1.3838404669260689e-02 6.2431906614785924e-03  1.1950738916256146e-02 1.3838404669260685e-02 6.2431906614785924e-03  1.1950738916256145e-02 1.3838404669260689e-02 6.2431906614785941e-03  1.1950738916256148e-02 1.3838404669260691e-02 6.2431906614785941e-03  1.1950738916256150e-02 1.3838404669260685e-02 6.2431906614785950e-03  1.1950738916256145e-02 1.3838404669260684e-02 6.2431906614785924e-03  1.1950738916256145e-02 1.3838404669260689e-02 6.2431906614785924e-03  1.1950738916256148e-02 1.3838404669260687e-02 6.2431906614785941e-03  1.1950738916256151e-02 1.3838404669260685e-02 6.2431906614785915e-03  1.1950738916256151e-02 1.3838404669260691e-02 6.2431906614785941e-03  1.1950738916256153e-02 1.3838404669260698e-02 6.2431906614785967e-03  1.1950738916256150e-02 1.3838404669260687e-02 6.2431906614785941e-03  1.1950738916256148e-02 1.3838404669260689e-02 6.2431906614785959e-03  1.1950738916256150e-02 1.3838404669260687e-02 6.2431906614785933e-03  1.1950738916256148e-02 1.3838404669260684e-02 6.2431906614785915e-03  1.1950738916256151e-02 1.3838404669260692e-02 6.2431906614785950e-03  1.1950738916256151e-02 1.3838404669260696e-02 6.2431906614785959e-03  1.1950738916256146e-02 1.3838404669260699e-02 6.2431906614785967e-03  1.1950738916256150e-02 1.3838404669260691e-02 6.2431906614785959e-03  1.1950738916256146e-02 1.3838404669260687e-02 6.2431906614785941e-03  1.1950738916256145e-02 1.3838404669260689e-02 6.2431906614785924e-03  1.1950738916256138e-02 1.3838404669260684e-02 6.2431906614785941e-03  1.1950738916256148e-02 1.3838404669260687e-02 6.2431906614785941e-03  1.1950738916256146e-02 1.3838404669260685e-02 6.2431906614785924e-03  1.1950738916256151e-02 1.3838404669260691e-02 6.2431906614785933e-03  1.1950738916256145e-02 1.3838404669260684e-02 6.2431906614785872e-03  1.1950738916256146e-02 1.3838404669260687e-02 6.2431906614785933e-03  1.1950738916256150e-02 1.3838404669260689e-02 6.2431906614785941e-03  1.1950738916256143e-02 1.3838404669260689e-02 6.2431906614785924e-03  1.1950738916256150e-02 1.3838404669260694e-02 6.2431906614785950e-03  1.1950738916256148e-02 1.3838404669260692e-02 6.2431906614785950e-03  1.1950738916256148e-02 1.3838404669260687e-02 6.2431906614785924e-03  1.1950738916256146e-02 1.3838404669260684e-02 6.2431906614785898e-03  1.1950738916256146e-02 1.3838404669260685e-02 6.2431906614785915e-03  1.1950738916256146e-02 1.3838404669260685e-02 6.2431906614785950e-03  1.1950738916256143e-02 1.3838404669260684e-02 6.2431906614785950e-03  1.1950738916256151e-02 1.3838404669260692e-02 6.2431906614785967e-03  1.1950738916256148e-02 1.3838404669260691e-02 6.2431906614785967e-03  1.1950738916256146e-02 1.3838404669260685e-02 6.2431906614785933e-03  1.1950738916256148e-02 1.3838404669260687e-02 6.2431906614785941e-03  1.1950738916256148e-02 1.3838404669260687e-02 6.2431906614785941e-03  1.1950738916256150e-02 1.3838404669260691e-02 6.2431906614785941e-03  1.1950738916256150e-02 1.3838404669260682e-02 6.2431906614785924e-03  1.1950738916256148e-02 1.3838404669260685e-02 6.2431906614785941e-03  1.1950738916256146e-02 1.3838404669260685e-02 6.2431906614785941e-03  1.1950738916256145e-02 1.3838404669260691e-02 6.2431906614785933e-03  1.1950738916256146e-02 1.3838404669260687e-02 6.2431906614785941e-03  1.1950738916256148e-02 1.3838404669260696e-02 6.2431906614785941e-03  1.1950738916256151e-02 1.3838404669260696e-02 6.2431906614785967e-03  1.1950738916256148e-02 1.3838404669260691e-02 6.2431906614785924e-03  1.1950738916256139e-02 1.3838404669260677e-02 6.2431906614785898e-03  1.1950738916256150e-02 1.3838404669260689e-02 6.2431906614785933e-03  1.1950738916256148e-02 1.3838404669260687e-02 6.2431906614785941e-03  1.1950738916256145e-02 1.3838404669260689e-02 6.2431906614785967e-03  1.1950738916256150e-02 1.3838404669260687e-02 6.2431906614785950e-03  1.1950738916256146e-02 1.3838404669260689e-02 6.2431906614785941e-03  1.1950738916256146e-02 1.3838404669260689e-02 6.2431906614785959e-03  1.1950738916256148e-02 1.3838404669260692e-02 6.2431906614785941e-03  1.1950738916256150e-02 1.3838404669260689e-02 6.2431906614785941e-03  1.1950738916256148e-02 1.3838404669260687e-02 6.2431906614785933e-03  1.1950738916256145e-02 1.3838404669260692e-02 6.2431906614785941e-03  1.1950738916256148e-02 1.3838404669260691e-02 6.2431906614785967e-03  1.1950738916256146e-02 1.3838404669260691e-02 6.2431906614785994e-03  1.1950738916256151e-02 1.3838404669260703e-02 6.2431906614786184e-03  1.1950738916256139e-02 1.3838404669260809e-02 6.2431906614788570e-03  1.1950738916256134e-02 1.3838404669260958e-02 6.2431906614791883e-03  1.1950738916256119e-02 1.3838404669261277e-02 6.2431906614798813e-03  1.1950738916256091e-02 1.3838404669261919e-02 6.2431906614812630e-03  1.1950738916255864e-02 1.3838404669267048e-02 6.2431906614923262e-03  1.1950738916255081e-02 1.3838404669284878e-02 6.2431906615307026e-03  1.1950738916252051e-02 1.3838404669352723e-02 6.2431906616764610e-03  1.1950738916240154e-02 1.3838404669620672e-02 6.2431906622506736e-03  1.1950738916194697e-02 1.3838404670646186e-02 6.2431906644439044e-03  1.1950738916023376e-02 1.3838404674518532e-02 6.2431906727024511e-03  1.1950738915389166e-02 1.3838404688872338e-02 6.2431907032565927e-03  1.1950738913126936e-02 1.3838404740155895e-02 6.2431908121620729e-03  1.1950738905412163e-02 1.3838404915381847e-02 6.2431911832288804e-03  1.1950738768076659e-02 1.3838408043786525e-02 6.2431977797129624e-03  1.1950738203657683e-02 1.3838420928977314e-02 6.2432248611537450e-03  1.1950735622055151e-02 1.3838479968544464e-02 6.2433486208201350e-03  1.1950722858505522e-02 1.3838772959590455e-02 6.2439592999690690e-03  1.1950662081405775e-02 1.3840173713482144e-02 6.2468609282954734e-03  1.1950372811231428e-02 1.3846874622129005e-02 6.2606308891396088e-03  1.1948962697597631e-02 1.3879743910924247e-02 6.3274948457455824e-03  1.1941986803832542e-02 1.4043595238000653e-02 6.6564916737702059e-03  1.1908176302261035e-02 1.4843476686163433e-02 8.2414598628829053e-03  1.1718148839657799e-02 1.9449192883724199e-02 1.6870644586782307e-02  1.0726363586282572e-02 4.3929872263106740e-02 6.0561596329324133e-02  7.2595402676466497e-03 1.2275803936853617e-01 2.2810109724682143e-01  4.3223195262951661e-03 1.5458573718495242e-01 3.6384324781887839e-01  3.1280637888425923e-03 2.1596181630403233e-01 4.6578567620911226e-01  2.2720998600511914e-03 2.5093080351426544e-01 5.0245895174679867e-01  3.0221222261609445e-03 2.3416283377916572e-01 5.1141398947140870e-01  2.6360497431581870e-03 2.4658685883901976e-01 5.5670682246760583e-01  2.8483377118046767e-03 2.3758764548290165e-01 5.8609569330140110e-01  2.6586479129720032e-03 2.0337727419219348e-01 5.2848073095162518e-01  2.4569019243735686e-03 2.2356626358984541e-01 4.5739398241703944e-01  2.4982067314547798e-03 2.2409031333581445e-01 4.3877363402185349e-01  3.1608046742483118e-03 1.5945041751859990e-01 4.2824042497332809e-01  3.9476933309951700e-03 2.2111569348120741e-01 5.0240653492334331e-01  4.1322701698974689e-03 2.3986609100652545e-01 4.7428080562322400e-01  3.9121414296762608e-03 1.7494812705140736e-01 4.6577047414820039e-01  3.1320821522857452e-03 1.6660972606077026e-01 4.3754456862950947e-01  2.8887306225821893e-03 1.3913472859763290e-01 4.3789930397772719e-01  3.3197969158522325e-03 1.8233680886106235e-01 4.0492035424639733e-01  3.5564250073414996e-03 1.6233483862333428e-01 4.3191549812441654e-01  3.2711492118926728e-03 1.5780518635203894e-01 4.7734441442450259e-01  2.0302094468304245e-03 2.2517798210208545e-01 5.0577532296014727e-01  2.5225886116772732e-03 2.1631191075826345e-01 4.9729899532856559e-01  3.4831347779053371e-03 2.1187355802493310e-01 5.3210787037823482e-01  2.9922017679146692e-03 2.4001995342176333e-01 4.4780450230888946e-01  2.8326565358380278e-03 1.9492965402566984e-01 4.8296307950808542e-01  2.6152494438542650e-03 1.7983139485196822e-01 4.3533970227327284e-01  2.4409564166729702e-03 2.3070901545656600e-01 4.2379812061811911e-01  2.5479905822196947e-03 2.0647482950625515e-01 4.3688747488260887e-01  2.3966544577283750e-03 2.6683931754230195e-01 5.1500867270336681e-01  2.1873323597611564e-03 2.6147092211767770e-01 4.9972473294039299e-01  2.3160455724536414e-03 2.0353800916517342e-01 5.1646628954664697e-01  2.8056700713044933e-03 2.0091097390609536e-01 5.0259325177409664e-01  2.0375940623603445e-03 2.2597534434852820e-01 4.9065330969336379e-01  1.5876878443866823e-03 2.5018363002752542e-01 4.8696829113875134e-01  1.9892139544791130e-03 2.2476841497799219e-01 5.0230925532834914e-01  3.0639410295085633e-03 2.0656021129377442e-01 4.7996774102384870e-01  2.9383020598540005e-03 1.3769164764052341e-01 4.5856954564096336e-01  2.8707478010689845e-03 1.2064190644005614e-01 4.3219297427153397e-01  2.1816512620154100e-03 1.7596419779703895e-01 4.7228001298132422e-01  1.9038002513846837e-03 2.4948629460968966e-01 4.6416169525395573e-01  1.5196278020620298e-03 2.7202881641999221e-01 4.7574723349602033e-01  2.3904321129945248e-03 2.4734444727463320e-01 4.7126052586674905e-01  3.5257509980699681e-03 1.7239221633708499e-01 4.4762195504045010e-01  3.4253446151189262e-03 1.9850419810130707e-01 4.7665090572021174e-01  2.4090481887813989e-03 1.7556648967453312e-01 4.8304628735284438e-01  2.1868007172700355e-03 1.5348576521214946e-01 4.2720461137520677e-01  2.3136864156646508e-03 2.2106105538617363e-01 4.6026439677339698e-01  2.7830340657518096e-03 1.9807449983408501e-01 4.7440131858964174e-01  2.6950405556324382e-03 1.7298215393373431e-01 4.3987012479804999e-01  3.7226763354241926e-03 2.4589069389812959e-01 4.7781699336753408e-01  3.2503365160231027e-03 2.7948677462403632e-01 5.2006543009855122e-01  3.0358171455267258e-03 2.9453327606242458e-01 4.9828676691425478e-01  3.1881529363092329e-03 2.8412644825441941e-01 4.8024779695627234e-01  2.7208926208272225e-03 2.3307676605558270e-01 4.8886091923951197e-01  2.7824394987111772e-03 2.3835573704056373e-01 4.8685637248745722e-01  3.1748503764125889e-03 2.9225888813138495e-01 4.6122243401512836e-01  2.7404648066542219e-03 2.3542018793216771e-01 4.6181246716354729e-01  2.6410912623143832e-03 3.1950136573119964e-01 4.3654289829129983e-01  3.2892221706208309e-03 3.1305340465226988e-01 4.4793490833013416e-01  3.2224862827413968e-03 2.9858186303653550e-01 4.3708954311069359e-01  3.8621840832601729e-03 3.2630404637755545e-01 4.5689626720881732e-01  3.5496352810402039e-03 2.9906478323399338e-01 4.6451039541713285e-01  3.2546214588418210e-03 1.7850226201956546e-01 4.2652597759438754e-01  3.3379709606068701e-03 1.7248801558232560e-01 4.3069136118909152e-01  4.0087489341185927e-03 2.2016331469118744e-01 4.2176535872647225e-01  3.6807475242394833e-03 2.1936228018624243e-01 4.3719426085454299e-01  3.0933653338655488e-03 1.9625724821269991e-01 5.0150912471439424e-01  2.5147988855127256e-03 1.4926349190588739e-01 5.2322717370879190e-01  3.1608127412120711e-03 1.4943184134781387e-01 5.3917723941299089e-01  3.7313995663226479e-03 1.4534393624869010e-01 5.1461893023848182e-01  3.8536762971671441e-03 1.8503906683481675e-01 4.7203326842320581e-01  3.1543637648116765e-03 1.7875407266818269e-01 4.0717404796279039e-01  2.6668586991159095e-03 2.2210427287097934e-01 4.0773532542081103e-01  2.9493618542436829e-03 2.9397473861229728e-01 4.9760992923915748e-01  3.7418980821381531e-03 3.4683051572297552e-01 5.4430122924420687e-01  3.6076486727038078e-03 3.1213138266265511e-01 5.1761118902877534e-01  3.3755067477513321e-03 2.0670213410687982e-01 4.8120710496350666e-01  3.3653122623347903e-03 1.3500393503794550e-01 4.2395038750668484e-01  3.6486463982246184e-03 1.2190965747844727e-01 4.6592132412484949e-01  4.0109763848958516e-03 1.4558136311251077e-01 4.1911008057952742e-01  4.5359041420774500e-03 2.3661961115839411e-01 4.1133840603131633e-01  4.0725561810142042e-03 2.9455333356561486e-01 4.6112675269992848e-01  3.3668400272803584e-03 3.3168313002052408e-01 5.3346102205034762e-01  3.3156154980575440e-03 3.0956699831327883e-01 4.8733746878553830e-01  3.9841718385533447e-03 2.7022731841880299e-01 4.7095083093114443e-01  3.9228853287283415e-03 2.8585950909914021e-01 4.9613678577677051e-01  3.0326471689968585e-03 3.1008688634363218e-01 5.0328903462174812e-01  3.0074126366281964e-03 2.9715278290059965e-01 4.7247914775582411e-01  2.8921712508638746e-03 2.4892334606199551e-01 4.3327244906313783e-01  1.7807665972350943e-03 1.5879162705020397e-01 4.1300748558016975e-01  2.7224281099598167e-03 1.6380479555506106e-01 4.9318350458625698e-01  3.6584227143961479e-03 1.8388409460736954e-01 5.0230503013180372e-01  2.9247234812460939e-03 1.9846886084025772e-01 5.2005460341517662e-01  2.8966540385149883e-03 2.2409436666865445e-01 5.0846279185164289e-01  3.5741742213328750e-03 2.2382390547781633e-01 5.0118937019029253e-01  3.3385525485703379e-03 2.0798080613579076e-01 4.9316149559730721e-01  2.7637930519037678e-03 1.9204909822867583e-01 4.7404589426928817e-01  3.8283358836301018e-03 2.1100387820874877e-01 4.8684748810294620e-01  4.2808519524768773e-03 1.7943204979956007e-01 4.9128803416364503e-01  4.1649544038453740e-03 1.7638794883706005e-01 4.9123285979042819e-01  4.0693357631721846e-03 1.4063244519576956e-01 4.4189413687902629e-01  3.5979700174126354e-03 1.5417642766597281e-01 5.1958978407952972e-01  2.2677787198859579e-03 1.6729620034034035e-01 4.9287992920576357e-01  2.1044911721500616e-03 1.7775405701402791e-01 4.3163889190097066e-01  2.1395891120