<?xml version="1.0"?>
<VTKFile type="UnstructuredGrid"  version="0.1"  >
<UnstructuredGrid>
<Piece  NumberOfPoints="7288" NumberOfCells="14083">
<Points>
<DataArray  type="Float64"  NumberOfComponents="3"  format="ascii">239.8 188 0  250.2 180 0  258.2 172.4 0  257 169.4 0  259.9 157.4 0  258.7 150.3 0  261 143.5 0  251.7 144.4 0  250 138.7 0  247 138.1 0  245.2 130.8 0  247.3 126.4 0  242.7 118.6 0  231.2 107.7 0  226 102.4 0  226.5 93.90000000000001 0  224.5 91.19999999999999 0  224.5 84.09999999999999 0  234.5 73.80000000000001 0  228.4 68.90000000000001 0  230 70 0  233.4 68 0  222.7 61.5 0  220.6 45.5 0  223.4 49.40000000000001 0  224 47 0  221.8 43.09999999999999 0  221 38.40000000000001 0  219.5 38.5 0  219.4 41.69999999999999 0  217.1 36.90000000000001 0  209.7 36 0  209.5 31.69999999999999 0  205.1 29.90000000000001 0  201.5 30.40000000000001 0  199.2 38.69999999999999 0  201.8 41.40000000000001 0  194.8 53.80000000000001 0  196.1 57.69999999999999 0  193 59 0  191.4 66.09999999999999 0  193.5 66.5 0  194.1 64.40000000000001 0  195.6 64.69999999999999 0  195.4 72.40000000000001 0  199.5 77.30000000000001 0  197.7 86.90000000000001 0  200.6 87.5 0  201.5 91 0  198 94.80000000000001 0  198.6 100 0  197.3 105.4 0  198 109.5 0  197 112.7 0  198.3 116.1 0  201.3 122 0  207.2 121 0  208.1 126.7 0  205.6 127.9 0  209.1 134.9 0  210.9 144.4 0  210.1 147.9 0  213 148.4 0  215.4 149.3 0  215.1 152.8 0  219.9 159.7 0  220.3 163.2 0  218.7 164.9 0  219.9 166.7 0  221.9 169.7 0  220 170.3 0  224.9 174.7 0  229.8 177.4 0  229.7 181 0  228 172.9 0  239 178 0  240.4 180 0  239 181.5 0  241.2 185.9 0  242.95 187.99 0  240.5875 187.9975 0  241.375 187.995 0  242.1625 187.9925 0  243.6090909090879 187.2636363636397 0  244.2681818181765 186.5372727272785 0  244.9272727272692 185.810909090913 0  245.5863636363531 185.0845454545571 0  246.245454545445 184.3581818181923 0  246.9045454545351 183.6318181818295 0  247.5636363636303 182.9054545454612 0  248.2227272727197 182.1790909090992 0  248.8818181818179 181.4527272727275 0  249.5409090909066 180.7263636363664 0  250.8666666666961 179.3666666666387 0  251.5333333334033 178.7333333332668 0  252.2000000000994 178.0999999999055 0  252.8666666668011 177.466666666539 0  253.5333333335083 176.8333333331671 0  254.2000000002044 176.1999999998058 0  254.8666666669005 175.5666666664445 0  255.5333333336077 174.9333333330727 0  256.2000000002685 174.2999999997449 0  256.8666666668457 173.6666666664966 0  257.5333333334283 173.033333333243 0  257.9000000000077 171.6500000000191 0  257.6000000000015 170.9000000000038 0  257.2999999999954 170.1499999999885 0  257.2230769230778 168.4769230769195 0  257.4461538461543 167.5538461538442 0  257.6692307692309 166.6307692307688 0  257.8923076923074 165.7076923076935 0  258.115384615384 164.7846153846181 0  258.3384615384605 163.8615384615427 0  258.5615384615395 162.9384615384572 0  258.784615384616 162.0153846153819 0  259.0076923076926 161.0923076923065 0  259.2307692307691 160.1692307692311 0  259.4538461538457 159.2461538461558 0  259.6769230769222 158.3230769230804 0  259.750000000001 156.512500000006 0  259.6000000000014 155.6250000000082 0  259.4500000000029 154.7375000000176 0  259.3000000000018 153.8500000000108 0  259.1500000000007 152.962500000004 0  259.0000000000004 152.0750000000026 0  258.849999999999 151.187499999994 0  258.9875000000052 149.4499999999846 0  259.275000000002 148.5999999999941 0  259.5624999999954 147.7500000000135 0  259.849999999995 146.900000000015 0  260.1374999999945 146.0500000000164 0  260.4249999999913 145.2000000000259 0  260.7124999999948 144.3500000000154 0  260.0700000000398 143.5899999999961 0  259.1400000000573 143.6799999999944 0  258.2100000000351 143.7699999999966 0  257.2800000000262 143.8599999999975 0  256.350000000011 143.9499999999989 0  255.4199999999881 144.0400000000011 0  254.4899999999726 144.1300000000026 0  253.5599999999944 144.2200000000005 0  252.6300000000009 144.3099999999999 0  251.4166666666658 143.4499999999971 0  251.1333333333388 142.5000000000182 0  250.8500000000015 141.5500000000051 0  250.5666666666612 140.5999999999818 0  250.2833333333342 139.6500000000029 0  249.2500000000005 138.5500000000001 0  248.5000000000011 138.4000000000002 0  247.7499999999995 138.2499999999999 0  246.7750000000005 137.1875000000023 0  246.5500000000021 136.2750000000085 0  246.3250000000036 135.3625000000147 0  246.1000000000042 134.450000000017 0  245.8750000000022 133.5375000000088 0  245.650000000003 132.6250000000124 0  245.4250000000046 131.7125000000187 0  245.619999999996 129.9200000000084 0  246.0399999999992 129.0400000000017 0  246.4599999999987 128.1600000000028 0  246.8800000000001 127.2799999999997 0  246.8399999999988 125.6199999999979 0  246.3799999999984 124.8399999999973 0  245.9199999999991 124.0599999999985 0  245.4600000000036 123.2800000000062 0  245.0000000000049 122.5000000000082 0  244.5400000000036 121.7200000000062 0  244.0800000000033 120.9400000000056 0  243.6200000000016 120.1600000000027 0  243.1600000000012 119.3800000000021 0  241.9812499999996 117.9187499999997 0  241.2625000000007 117.2375000000007 0  240.5437500000017 116.5562500000017 0  239.8250000000041 115.875000000004 0  239.1062500000066 115.1937500000063 0  238.3875000000076 114.5125000000072 0  237.6687500000087 113.8312500000082 0  236.9500000000083 113.1500000000079 0  236.231250000008 112.4687500000076 0  235.512500000009 111.7875000000085 0  234.7937500000045 111.1062500000043 0  234.0750000000042 110.4250000000039 0  233.3562500000066 109.7437500000062 0  232.6375000000021 109.062500000002 0  231.9187500000031 108.381250000003 0  230.5500000000004 107.0375000000004 0  229.9000000000021 106.3750000000021 0  229.2500000000038 105.7125000000039 0  228.6000000000041 105.0500000000042 0  227.9500000000018 104.3875000000018 0  227.2999999999952 103.7249999999951 0  226.6500000000024 103.0625000000024 0  226.0555555555555 101.4555555555556 0  226.1111111111111 100.5111111111111 0  226.1666666666667 99.56666666666668 0  226.2222222222222 98.62222222222223 0  226.2777777777778 97.67777777777778 0  226.3333333333333 96.73333333333335 0  226.3888888888889 95.78888888888889 0  226.4444444444445 94.84444444444446 0  226 93.22499999999999 0  225.5000000000026 92.55000000000358 0  225.0000000000026 91.87500000000358 0  224.5 90.31250000000068 0  224.5 89.4250000000097 0  224.5 88.53750000001317 0  224.5 87.65000000001388 0  224.5 86.76250000001457 0  224.5 85.87500000001248 0  224.5 84.9874999999993 0  225.1666666666659 83.41333333333409 0  225.8333333333319 82.72666666666818 0  226.4999999999978 82.04000000000228 0  227.1666666666649 81.35333333333514 0  227.8333333333301 80.66666666667 0  228.4999999999942 79.980000000006 0  229.1666666666601 79.2933333333401 0  229.8333333333316 78.60666666666847 0  230.4999999999975 77.92000000000257 0  231.1666666666644 77.23333333333572 0  231.8333333333295 76.54666666667057 0  232.4999999999972 75.86000000000287 0  233.1666666666681 75.17333333333181 0  233.8333333333368 74.48666666666306 0  233.7499999999995 73.16666666666629 0  233.0000000000018 72.53333333333488 0  232.2500000000014 71.90000000000116 0  231.5000000000009 71.26666666666743 0  230.7500000000005 70.63333333333372 0  229.233333333333 68.75000000000006 0  230.0666666666665 68.60000000000004 0  230.8999999999995 68.45000000000009 0  231.7333333333325 68.30000000000015 0  232.566666666667 68.14999999999995 0  232.5499999999897 68.50000000000607 0  231.7 69 0  230.8500000000103 69.49999999999393 0  227.8300000000008 68.16000000000106 0  227.2600000000064 67.42000000000837 0  226.6900000000077 66.68000000001001 0  226.1200000000024 65.94000000000314 0  225.5500000000108 65.20000000001409 0  224.9800000000098 64.46000000001268 0  224.4100000000007 63.72000000000098 0  223.8399999999971 62.97999999999621 0  223.2699999999993 62.23999999999915 0  222.753846153846 60.56923076923239 0  222.8076923076921 59.63846153846478 0  222.8615384615381 58.70769230769827 0  222.9153846153842 57.77692307693071 0  222.9692307692302 56.84615384616315 0  223.0230769230761 55.91538461539836 0  223.0769230769224 54.98461538462665 0  223.1307692307688 54.05384615385345 0  223.184615384615 53.12307692308312 0  223.2384615384611 52.19230769231556 0  223.2923076923071 51.26153846154906 0  223.3461538461533 50.33076923077847 0  222.8400000000024 48.62000000000327 0  222.2800000000047 47.84000000000661 0  221.7200000000005 47.06000000000071 0  221.1600000000003 46.28000000000039 0  221.4500000000116 45.87500000000512 0  222.3 46.25 0  223.1499999999884 46.62499999999488 0  223.5600000000055 46.22000000000981 0  223.1199999999987 45.43999999999767 0  222.6800000000061 44.66000000001075 0  222.2399999999969 43.8799999999944 0  221.6400000000004 42.16000000000253 0  221.4800000000009 41.22000000000548 0  221.3200000000014 40.28000000000801 0  221.1600000000009 39.34000000000556 0  220.25 38.45 0  219.4749999999999 39.30000000000165 0  219.45 40.09999999999999 0  219.425 40.90000000000112 0  219.0166666666641 40.89999999999463 0  218.6333333333375 40.10000000000875 0  218.2500000000016 39.30000000000339 0  217.8666666666635 38.49999999999351 0  217.483333333337 37.70000000000762 0  216.1750000000165 36.78750000000201 0  215.2500000000275 36.67500000000335 0  214.3250000000385 36.56250000000469 0  213.4000000000277 36.45000000000337 0  212.4750000000059 36.33750000000072 0  211.5499999999838 36.22499999999803 0  210.6249999999835 36.11249999999799 0  209.6600000000001 35.14000000000318 0  209.6200000000001 34.28000000000268 0  209.5800000000001 33.42000000000284 0  209.5399999999998 32.55999999999681 0  208.6200000000117 31.34000000000476 0  207.7400000000138 30.98000000000564 0  206.8600000000162 30.62000000000662 0  205.9800000000174 30.26000000000711 0  204.2000000000054 30.02499999999925 0  203.2999999999946 30.15000000000076 0  202.3999999999945 30.27500000000076 0  201.2444444444438 31.32222222222468 0  200.9888888888895 32.24444444
[...]
<PointData  Vectors="f_12"> 
<DataArray  type="Float64"  Name="f_12"  NumberOfComponents="3" format="ascii">4.7160801239493283e-01 8.8052616986033894e-02 3.3150302803083520e-01  4.7160790250183776e-01 8.8052598385238032e-02 3.3150235856937615e-01  4.7160689631910546e-01 8.8052805056606551e-02 3.3149607338061260e-01  4.7160438048314129e-01 8.8053798386137014e-02 3.3148012750044531e-01  4.7148169795261763e-01 8.8135504473313739e-02 3.3068449690647134e-01  4.7094256241844668e-01 8.8652528824168575e-02 3.2709035138986864e-01  4.7085069465790297e-01 8.8716458146343741e-02 3.2649387549713954e-01  4.6639408704265767e-01 1.0114668008680743e-01 2.9178506826928668e-01  4.6175070128554424e-01 1.4499044822259791e-01 2.3803091860621373e-01  4.6495902143097417e-01 2.0190845592664872e-01 2.2448455122009578e-01  5.0112650090967947e-01 5.2390424756741028e-01 2.0823902765161620e-01  5.1872445215100671e-01 6.2722437562268074e-01 2.1004210101588727e-01  5.3956727162742646e-01 7.0358239784899768e-01 2.2833933409981419e-01  5.3735908485969008e-01 6.9902175844850378e-01 2.2393093641719641e-01  5.1049691962450150e-01 6.0060969577666401e-01 1.9299472201240672e-01  4.9745886625171887e-01 5.3997382563653529e-01 1.7635796702423717e-01  5.0199830633647147e-01 5.6239947590221551e-01 1.8188147457716416e-01  5.2425461815513530e-01 6.5737677022930274e-01 2.0733307134430792e-01  5.4625085838804810e-01 7.2424066299873457e-01 2.3284288404126646e-01  5.4218132577142308e-01 7.1458231779468384e-01 2.2734557035370667e-01  5.4400363362994442e-01 7.1905278035520304e-01 2.2977829669249736e-01  5.4503202516004223e-01 7.2154924877312576e-01 2.3108960740356341e-01  5.2578601581730089e-01 6.6653359927609412e-01 2.0608799487011661e-01  5.1060399130099487e-01 6.0616136543345422e-01 1.8862597242928747e-01  5.1288260130514096e-01 6.1683812810733407e-01 1.9072646264854939e-01  5.1075427557416508e-01 6.0675615247579562e-01 1.8880979636898643e-01  5.1020871866504725e-01 6.0418526899044256e-01 1.8831545774821457e-01  5.1034867785142046e-01 6.0467984758151416e-01 1.8853253654378138e-01  5.1034114539557951e-01 6.0464521495973367e-01 1.8852509472825738e-01  5.0928019976688210e-01 5.9975233889100354e-01 1.8746241283485701e-01  5.0533426213948607e-01 5.8056698577930188e-01 1.8374938787756742e-01  4.9722030846466853e-01 5.3738033782913674e-01 1.7654703082217704e-01  4.9261658961664911e-01 5.1139420769504307e-01 1.7221995550646957e-01  4.9131034049368633e-01 5.0381518978024353e-01 1.7094050490124438e-01  4.9106196955740100e-01 5.0238217390074003e-01 1.7068687460843213e-01  4.9428022405436972e-01 5.2124842143292294e-01 1.7361085538017623e-01  4.9840906368046978e-01 5.4433863122007409e-01 1.7739755929557025e-01  5.1371932390172892e-01 6.2016108322256380e-01 1.9191817913181236e-01  5.1808706153203599e-01 6.3823030414747950e-01 1.9670207878745913e-01  5.2066953993576937e-01 6.4849437311918934e-01 1.9950716395936521e-01  5.2555438424719592e-01 6.6644626644712435e-01 2.0506885672484548e-01  5.2526761412085932e-01 6.6544107785854889e-01 2.0473143650029391e-01  5.2257626689639225e-01 6.5570484954638597e-01 2.0163966928543048e-01  5.2334769331755260e-01 6.5853557772592541e-01 2.0251816027993205e-01  5.2484467362486453e-01 6.6399116702224492e-01 2.0421015414588584e-01  5.2034287685288771e-01 6.4706035413599605e-01 1.9927064551815124e-01  5.1092061654346899e-01 6.0725159267955175e-01 1.8937499578572492e-01  5.0865424330256881e-01 5.9626590636499288e-01 1.8742024129896637e-01  5.0060988370537296e-01 5.5562292115878187e-01 1.7984855635137456e-01  4.9489690267168990e-01 5.2502899376768153e-01 1.7399442448376873e-01  4.9453029780011448e-01 5.2338166575152589e-01 1.7343731224718092e-01  4.9901185581703866e-01 5.4788104801557636e-01 1.7802850669850426e-01  5.0607748850799894e-01 5.8337313623147236e-01 1.8545142659379343e-01  5.1151864348603771e-01 6.0891097377772396e-01 1.9098827203162677e-01  5.1638087355783491e-01 6.2982023936979925e-01 1.9613868140414584e-01  5.2332238261909370e-01 6.5713706032363595e-01 2.0365021828661037e-01  5.2829845520993512e-01 6.7362274487603391e-01 2.1030408063390615e-01  5.2527003124351479e-01 6.5978078542480822e-01 2.1001043260283225e-01  5.2245122014638201e-01 6.4888909168145137e-01 2.0746858788202943e-01  5.0267306047044036e-01 5.4221591917840883e-01 2.0168319005596902e-01  4.6294315913792794e-01 2.2241125176575227e-01 1.9989421605474686e-01  4.5926397205659025e-01 1.7985337719629860e-01 2.0285952048400485e-01  4.5961406982415193e-01 1.6998335412231583e-01 2.1074590169068844e-01  4.6107023954104226e-01 1.3888989259357581e-01 2.3766457524656456e-01  4.6389643295387611e-01 1.0735725651708722e-01 2.7300571151966274e-01  4.6976000787478245e-01 9.0181856143201664e-02 3.1896724721869291e-01  4.7112285594336450e-01 8.8467835567026656e-02 3.2830259253156074e-01  4.7136409264274387e-01 8.8229798749994121e-02 3.2991366280355866e-01  4.7144404878023582e-01 8.8162996060378085e-02 3.3043986286930221e-01  4.7153866117535576e-01 8.8091336062404837e-02 3.3105792948707513e-01  4.7153246700664192e-01 8.8094694557084893e-02 3.3101826584926453e-01  4.7159124728077251e-01 8.8059079078778815e-02 3.3139696587738504e-01  4.7160618270752003e-01 8.8052998125127999e-02 3.3149160042250986e-01  4.7160738072128500e-01 8.8052616064407715e-02 3.3149914020417443e-01  4.7159283580943767e-01 8.8058891767998276e-02 3.3140677064983842e-01  4.7160721596897248e-01 8.8052728663667215e-02 3.3149807658722596e-01  4.7160781197716872e-01 8.8052618842564614e-02 3.3150179315664902e-01  4.7160794961994523e-01 8.8052606283476331e-02 3.3150264574324384e-01  4.7160800795101876e-01 8.8052614520879618e-02 3.3150300158731805e-01  4.7160801143761671e-01 8.8052616070242062e-02 3.3150302246208013e-01  4.7160801224546423e-01 8.8052616865373967e-02 3.3150302715410951e-01  4.7160801196144819e-01 8.8052616609545664e-02 3.3150302549681776e-01  4.7160801168578487e-01 8.8052616323216468e-02 3.3150302390063963e-01  4.7160801058414414e-01 8.8052615406835275e-02 3.3150301744685295e-01  4.7160800884043835e-01 8.8052614207694960e-02 3.3150300714754466e-01  4.7160800619844406e-01 8.8052612640844519e-02 3.3150299145711642e-01  4.7160800243580403e-01 8.8052610787609412e-02 3.3150296898080378e-01  4.7160799723303887e-01 8.8052608702878774e-02 3.3150293773491318e-01  4.7160799028088779e-01 8.8052606479630355e-02 3.3150289578249953e-01  4.7160798075195798e-01 8.8052604210224747e-02 3.3150283799704439e-01  4.7160796822172779e-01 8.8052602032273691e-02 3.3150276171085158e-01  4.7160795207801220e-01 8.8052600132784709e-02 3.3150266307874438e-01  4.7160793051951094e-01 8.8052598833100321e-02 3.3150253087828158e-01  4.7160787130910453e-01 8.8052598838567406e-02 3.3150216634358276e-01  4.7160783535708845e-01 8.8052600362547750e-02 3.3150194437359487e-01  4.7160779112765061e-01 8.8052603752763664e-02 3.3150167065637920e-01  4.7160773745831791e-01 8.8052609427214407e-02 3.3150133784896968e-01  4.7160767305637258e-01 8.8052617969792066e-02 3.3150093772954764e-01  4.7160759731545870e-01 8.8052629759798884e-02 3.3150046639262026e-01  4.7160750549806141e-01 8.8052646620757430e-02 3.3149989385074130e-01  4.7160739664798007e-01 8.8052669433666936e-02 3.3149921380243841e-01  4.7160727100758282e-01 8.8052698986660335e-02 3.3149842734966961e-01  4.7160713132251270e-01 8.8052735431288429e-02 3.3149755128054820e-01  4.7160699126756567e-01 8.8052775538482425e-02 3.3149667117278753e-01  4.7160673305353945e-01 8.8052863102302509e-02 3.3149504188635343e-01  4.7160633055159018e-01 8.8053011964896177e-02 3.3149249597457875e-01  4.7160563176975012e-01 8.8053283817340858e-02 3.3148806908543943e-01  4.7160242336013802e-01 8.8054652605724648e-02 3.3146768021341128e-01  4.7160017865728265e-01 8.8055699986583788e-02 3.3145336828865146e-01  4.7159733332068199e-01 8.8057111466894267e-02 3.3143518241011333e-01  4.7159366842941242e-01 8.8059031887569805e-02 3.3141170382929147e-01  4.7158895755553865e-01 8.8061625726820053e-02 3.3138145710377143e-01  4.7158294926691297e-01 8.8065087963446073e-02 3.3134279693114493e-01  4.7157536376099662e-01 8.8069648596743197e-02 3.3129388488637435e-01  4.7156589922683911e-01 8.8075571528394042e-02 3.3123272857337621e-01  4.7155421209387394e-01 8.8083177630476434e-02 3.3115704752811903e-01  4.7153977759795751e-01 8.8092958364957549e-02 3.3106335583805202e-01  4.7152257200358050e-01 8.8105054603431057e-02 3.3095142443278980e-01  4.7150248693245189e-01 8.8119733983663018e-02 3.3082043000253419e-01  4.7145501765783920e-01 8.8156749610608043e-02 3.3050942109268178e-01  4.7141665362081786e-01 8.8188420687294142e-02 3.3025697138141180e-01  4.7136728813745993e-01 8.8230770429479299e-02 3.2993111091186261e-01  4.7130618035776067e-01 8.8285479961743379e-02 3.2952626834136023e-01  4.7123300484010522e-01 8.8353943838973908e-02 3.2903956608613649e-01  4.7114826656896158e-01 8.8436884509846769e-02 3.2847358192902498e-01  4.7105195507404646e-01 8.8535556278309530e-02 3.2782743668036263e-01  4.7086657171777790e-01 8.8731475960874218e-02 3.2657987991484005e-01  4.7081793249742870e-01 8.8782773370171847e-02 3.2625264313149827e-01  4.7079749732227399e-01 8.8801079021970000e-02 3.2611727941524082e-01  4.7079433708081658e-01 8.8799611487584043e-02 3.2609914741120644e-01  4.7080563333668662e-01 8.8780808134352268e-02 3.2617964990047493e-01  4.7082424859890259e-01 8.8753645058295014e-02 3.2630982871737269e-01  4.7084251941414956e-01 8.8727893453907705e-02 3.2643701761913552e-01  4.7083493114208852e-01 8.8738920014268002e-02 3.2638396533091085e-01  4.7077623712753452e-01 8.8824605761056621e-02 3.2597340135118613e-01  4.7066260678154326e-01 8.8998202766457521e-02 3.2517362289022733e-01  4.7048379456890171e-01 8.9290104450142738e-02 3.2390315610448916e-01  4.7022483428817635e-01 8.9752098239239325e-02 3.2203847991739282e-01  4.6987043823277314e-01 9.0454266805935629e-02 3.1944320855194075e-01  4.6939877348474779e-01 9.1508775261655503e-02 3.1591670193539412e-01  4.6877194445123954e-01 9.3112997129228117e-02 3.1111205339490144e-01  4.6789661809340749e-01 9.5734737584650134e-02 3.0418727790384115e-01  4.6464547075137930e-01 1.0925104885265291e-01 2.7632206810004828e-01  4.6347678243065155e-01 1.1650202769653976e-01 2.6494556487342691e-01  4.6261525307679863e-01 1.2423034604894301e-01 2.5520928666362946e-01  4.6205303427959682e-01 1.3220513808931719e-01 2.4718503215503712e-01  4.6177293255709784e-01 1.3972537115843778e-01 2.4116357148794570e-01  4.6189207479683075e-01 1.4906295869765310e-01 2.3659901348976495e-01  4.6231517824963164e-01 1.5846347167097982e-01 2.3384897821876791e-01  4.6317861557835338e-01 1.7406862224394026e-01 2.3011104319348732e-01  4.6821009410087838e-01 2.4524547676463124e-01 2.1770679938874965e-01  4.7149798183376596e-01 2.8311777839983954e-01 2.1342422694615323e-01  4.7518675573664093e-01 3.2100503591425233e-01 2.1048419854958997e-01  4.7932554160048974e-01 3.5958541608293504e-01 2.0862889152688216e-01  4.8390987256580781e-01 3.9873848742080215e-01 2.0769163895231274e-01  4.8892511457592663e-01 4.3828073179749388e-01 2.0745291976636734e-01  4.9444763121355473e-01 4.7863675816417356e-01 2.0768913681096768e-01  5.0731525276928424e-01 5.6309642708421914e-01 2.0874545724957311e-01  5.1163697361671345e-01 5.8881336864688449e-01 2.0905111980317842e-01  5.1493776043229122e-01 6.0737549398512947e-01 2.0934217752361048e-01  5.1736377497433295e-01 6.2032687389277963e-01 2.0969515800798702e-01  5.1988910041846670e-01 6.3256806818548916e-01 2.1067921660754860e-01  5.2175786028149862e-01 6.4068224606624991e-01 2.1195201437103020e-01  5.2398218153457488e-01 6.4985286780618656e-01 2.1367167223267294e-01  5.2641013681059590e-01 6.5936818077177317e-01 2.1570917162486797e-01  5.2889333650668791e-01 6.6860542386893507e-01 2.1793686012719618e-01  5.3135849979760674e-01 6.7733199782527309e-01 2.2024427647088288e-01  5.3373394339591584e-01 6.8535825115058235e-01 2.2253068437799009e-01  5.3594938578851536e-01 6.9251783379723608e-01 2.2471307491585452e-01  5.3793759301781641e-01 6.9869404370698041e-01 2.2669750220301449e-01  5.4117123808296264e-01 7.0821659492426614e-01 2.2997747841486257e-01  5.4276134354630801e-01 7.1267690064909583e-01 2.3160154814235659e-01  5.4418648844128925e-01 7.1658069075889053e-01 2.3304784294032282e-01  5.4539369861176978e-01 7.1983261496983553e-01 2.3424944799367770e-01  5.4635266199553478e-01 7.2239813623686167e-01 2.3517203062949202e-01  5.4703673012230036e-01 7.2424313104776972e-01 2.3578690080335282e-01  5.4743421497897626e-01 7.2536624075035649e-01 2.3608060441206638e-01  5.4753619718600699e-01 7.2575940043864184e-01 2.3604567346527563e-01  5.4733664327124631e-01 7.2540953473651459e-01 2.3567777767903253e-01  5.4683292423912722e-01 7.2429790810618899e-01 2.3497772891022140e-01  5.4602554704077899e-01 7.2240055263221414e-01 2.3394948051702194e-01  5.4491471064416619e-01 7.1967955526170435e-01 2.3259682636805110e-01  5.4349745776928038e-01 7.1607167174706721e-01 2.3092258777973013e-01  5.4176496386448825e-01 7.1148300611004400e-01 2.2891723313780954e-01  5.3972269673662721e-01 7.0584174196450467e-01 2.2659198446080572e-01  5.3487510440997432e-01 6.9152069929106563e-01 2.2115699458701096e-01  5.3218165873202750e-01 6.8300534252753820e-01 2.1815921415772366e-01  5.2928035811168728e-01 6.7340886820207235e-01 2.1492582761582807e-01  5.2615647334468085e-01 6.6255759734132447e-01 2.1142297573894980e-01  5.2283232100279042e-01 6.5045303660258913e-01 2.0764625731090391e-01  5.1927194864071069e-01 6.3684987787753966e-01 2.0352669585791891e-01  5.1534635649423732e-01 6.2107919925051591e-01 1.9887765852004874e-01  5.0601825812443924e-01 5.8078803843683546e-01 1.8745194842672094e-01  5.0301298293074137e-01 5.6695013467615663e-01 1.8365073537164672e-01  5.0078096816558348e-01 5.5634881820577498e-01 1.8077444348563945e-01  4.9914778507866153e-01 5.4840585947146869e-01 1.7864160003896701e-01  4.9802996343923933e-01 5.4287150936105832e-01 1.7716848657531628e-01  4.9737654703601081e-01 5.3959140507425973e-01 1.7629985365369064e-01  4.9712858235453394e-01 5.3832824570044824e-01 1.7596115523472011e-01  4.9720429963850915e-01 5.3869715084689995e-01 1.7604361312443809e-01  4.9788409841956410e-01 5.4211007841463765e-01 1.7688501034587595e-01  4.9871297471772530e-01 5.4625508871235118e-01 1.7790612514819876e-01  4.9998564334537354e-01 5.5256234187553976e-01 1.7945782181555628e-01  5.0456827437861540e-01 5.7471204936814335e-01 1.8493855959277999e-01  5.0698735198063927e-01 5.8601637130653628e-01 1.8777793998553330e-01  5.0944731003197530e-01 5.9719650534126989e-01 1.9062882895270239e-01  5.1198909584806063e-01 6.0840499180267138e-01 1.9354326519390702e-01  5.1464240493201929e-01 6.1971627305024923e-01 1.9656302064090420e-01  5.1741770291604883e-01 6.3111733988000940e-01 1.9968967458723363e-01  5.2042509193400666e-01 6.4297577035915809e-01 2.0305642769019414e-01  5.2813834384099823e-01 6.7122483475527273e-01 2.1170662578601562e-01  5.3102658112925549e-01 6.8099823231637191e-01 2.1496584349391146e-01  5.3348272421568943e-01 6.8892601247660024e-01 2.1774244482047930e-01  5.3563810244112731e-01 6.9558656296879517e-01 2.2019213970004461e-01  5.3754778627256272e-01 7.0125463483721040e-01 2.2238216295548080e-01  5.3924101192257567e-01 7.0609604885342570e-01 2.2434659187883199e-01  5.4073393034790329e-01 7.1021863311692879e-01 2.2610183418150723e-01  5.4203704786296292e-01 7.1370322588106538e-01 2.2765545414259974e-01  5.4315872407653576e-01 7.1661785634513264e-01 2.2901046267279832e-01  5.4410339790272033e-01 7.1901086695313843e-01 2.3016561757044646e-01  5.4487459677831562e-01 7.2092308221126500e-01 2.3111832405398494e-01  5.4547334719527985e-01 7.2238166554397631e-01 2.3186441409722119e-01  5.4590026116637369e-01 7.2340769563762841e-01 2.3239995739689379e-01  5.4615557667835424e-01 7.2401577175403431e-01 2.3272167728949480e-01  5.4617226560839494e-01 7.2406183444046646e-01 2.3273691592848877e-01  5.4596695748578927e-01 7.2359576438968476e-01 2.3245782337824669e-01  5.4563474473634532e-01 7.2283843039870099e-01 2.3200554463815090e-01  5.4518093184171545e-01 7.2179550950430404e-01 2.3138795142958216e-01  5.4462186768641407e-01 7.2049848116778092e-01 2.3062652993034996e-01  5.4344678936442670e-01 7.1770907631861336e-01 2.2902740597180649e-01  5.4411948734282867e-01 7.1935477078453580e-01 2.2991249480882797e-01  5.4452332312650387e-01 7.2033471419308814e-01 2.3043630967383377e-01  5.4478983328539066e-01 7.2098227410942450e-01 2.3077919896952995e-01  5.4494531517992617e-01 7.2139317899366462e-01 2.3097783785357412e-01  5.4494087358196996e-01 7.2132315965453286e-01 2.3097313954817167e-01  5.4472054697957684e-01 7.2081674621216474e-01 2.3069045207734487e-01  5.4438308012393821e-01 7.1999450042238677e-01 2.3025751099084055e-01  5.4049190041629502e-01 7.1032523621267607e-01 2.2509399746814615e-01  5.3906068846930066e-01 7.0661742474988498e-01 2.2319122223161017e-01  5.3765413629325709e-01 7.0286373142029546e-01 2.2132979398649710e-01  5.3621969603993869e-01 6.9891817086176922e-01 2.1944326099499878e-01  5.3473809113613546e-01 6.9471555410769703e-01 2.1750934209827580e-01  5.3319933297061584e-01 6.9021240184914046e-01 2.1551618459478861e-01  5.3159191645719173e-01 6.8535609489763150e-01 2.1344957287851563e-01  5.2989546033030166e-01 6.8006052379546678e-01 2.1128351245784197e-01  5.2804779414810876e-01 6.7409570580177702e-01 2.0893863020111580e-01  5.2362681477305195e-01 6.5905869696455677e-01 2.0339292242496640e-01  5.2200818300327678e-01 6.5327237543417949e-01 2.0138683420699813e-01  5.2060525218815301e-01 6.4811656637579163e-01 1.9965971335110658e-01  5.1936026103317834e-01 6.4342184538061098e-01 1.9814106584008639e-01  5.1823652784120433e-01 6.3908450159370378e-01 1.9678547868792570e-01  5.1722459691792477e-01 6.3509178954152201e-01 1.9558141098411350e-01  5.1631535303655740e-01 6.3142945712872400e-01 1.9451640389004032e-01  5.1550311219389666e-01 6.2809365002720952e-01 1.9358153158213076e-01  5.1478335549708587e-01 6.2508297365901155e-01 1.9276889486708296e-01  5.1415553427984562e-01 6.2241085078620773e-01 1.9207478171625683e-01  5.1361805579532827e-01 6.2008561935572082e-01 1.9149400665128480e-01  5.1317597495085820e-01 6.1814396980702047e-01 1.9102802650192696e-01  5.1258067750773628e-01 6.1546962669604699e-01 1.9042899723399168e-01  5.1217361857825061e-01 6.1360054612070003e-01 1.9003900026123458e-01  5.1171184705203088e-01 6.1145170377174118e-01 1.8960832132497316e-01  5.1120343617409358e-01 6.0905033408338538e-01 1.8914750788319321e-01  5.1060237504909989e-01 6.0608531863249426e-01 1.8865353336474036e-01  5.1067433153267805e-01 6.0639684357032397e-01 1.8873028228863856e-01  5.1073057829661461e-01 6.0664909713499915e-01 1.8878646825207634e-01  5.1073182286320640e-01 6.0665468643612130e-01 1.8878770762001368e-01  5.1067414728437432e-01 6.0639212077448879e-01 1.8873173708042945e-01  5.1057100720449911e-01 6.0591498526032728e-01 1.8863466418497554e-01  5.1041246966316534e-01 6.0516611940433795e-01 1.8849166559004790e-01  5.1006935110051188e-01 6.0348844955708347e-01 1.8820769502312334e-01  5.1007413033488669e-01 6.0346803127249826e-01 1.8823500524220743e-01  5.1018317353906728e-01 6.0394144650102011e-01 1.8835766349784808e-01  5.1029978983842494e-01 6.0446101589974743e-01 1.8848135371761726e-01  5.1034184654757464e-01 6.0464876671789625e-01 1.8852562342078280e-01  5.1029565083082296e-01 6.0443956992253911e-01 1.8847835034161922e-01  5.1016343779926543e-01 6.0383962010654013e-01 1.8834305931383988e-01  5.0988624780662140e-01 6.0256778824222612e-01 1.8806362230925397e-01  5.0812068341482119e-01 5.9422553020303914e-01 1.8636050611018753e-01  5.0732080539612412e-01 5.9036323517547484e-01 1.8560525945467962e-01  5.0664831807152710e-01 5.8708034412040633e-01 1.8497216054985360e-01  5.0606879081824374e-01 5.8422537340485436e-01 1.8442903247301157e-01  5.0560566468855295e-01 5.8192494278754348e-01 1.8399855144042535e-01  5.0502572726920392e-01 5.7900491730729375e-01 1.8347436383872701e-01  5.0447386129172822e-01 5.7618886258988677e-01 1.8298867893653664e-01  5.0375200778