<?xml version="1.0"?>
<VTKFile type="UnstructuredGrid"  version="0.1"  >
<UnstructuredGrid>
<Piece  NumberOfPoints="7288" NumberOfCells="14083">
<Points>
<DataArray  type="Float64"  NumberOfComponents="3"  format="ascii">239.8 188 0  250.2 180 0  258.2 172.4 0  257 169.4 0  259.9 157.4 0  258.7 150.3 0  261 143.5 0  251.7 144.4 0  250 138.7 0  247 138.1 0  245.2 130.8 0  247.3 126.4 0  242.7 118.6 0  231.2 107.7 0  226 102.4 0  226.5 93.90000000000001 0  224.5 91.19999999999999 0  224.5 84.09999999999999 0  234.5 73.80000000000001 0  228.4 68.90000000000001 0  230 70 0  233.4 68 0  222.7 61.5 0  220.6 45.5 0  223.4 49.40000000000001 0  224 47 0  221.8 43.09999999999999 0  221 38.40000000000001 0  219.5 38.5 0  219.4 41.69999999999999 0  217.1 36.90000000000001 0  209.7 36 0  209.5 31.69999999999999 0  205.1 29.90000000000001 0  201.5 30.40000000000001 0  199.2 38.69999999999999 0  201.8 41.40000000000001 0  194.8 53.80000000000001 0  196.1 57.69999999999999 0  193 59 0  191.4 66.09999999999999 0  193.5 66.5 0  194.1 64.40000000000001 0  195.6 64.69999999999999 0  195.4 72.40000000000001 0  199.5 77.30000000000001 0  197.7 86.90000000000001 0  200.6 87.5 0  201.5 91 0  198 94.80000000000001 0  198.6 100 0  197.3 105.4 0  198 109.5 0  197 112.7 0  198.3 116.1 0  201.3 122 0  207.2 121 0  208.1 126.7 0  205.6 127.9 0  209.1 134.9 0  210.9 144.4 0  210.1 147.9 0  213 148.4 0  215.4 149.3 0  215.1 152.8 0  219.9 159.7 0  220.3 163.2 0  218.7 164.9 0  219.9 166.7 0  221.9 169.7 0  220 170.3 0  224.9 174.7 0  229.8 177.4 0  229.7 181 0  228 172.9 0  239 178 0  240.4 180 0  239 181.5 0  241.2 185.9 0  242.95 187.99 0  240.5875 187.9975 0  241.375 187.995 0  242.1625 187.9925 0  243.6090909090879 187.2636363636397 0  244.2681818181765 186.5372727272785 0  244.9272727272692 185.810909090913 0  245.5863636363531 185.0845454545571 0  246.245454545445 184.3581818181923 0  246.9045454545351 183.6318181818295 0  247.5636363636303 182.9054545454612 0  248.2227272727197 182.1790909090992 0  248.8818181818179 181.4527272727275 0  249.5409090909066 180.7263636363664 0  250.8666666666961 179.3666666666387 0  251.5333333334033 178.7333333332668 0  252.2000000000994 178.0999999999055 0  252.8666666668011 177.466666666539 0  253.5333333335083 176.8333333331671 0  254.2000000002044 176.1999999998058 0  254.8666666669005 175.5666666664445 0  255.5333333336077 174.9333333330727 0  256.2000000002685 174.2999999997449 0  256.8666666668457 173.6666666664966 0  257.5333333334283 173.033333333243 0  257.9000000000077 171.6500000000191 0  257.6000000000015 170.9000000000038 0  257.2999999999954 170.1499999999885 0  257.2230769230778 168.4769230769195 0  257.4461538461543 167.5538461538442 0  257.6692307692309 166.6307692307688 0  257.8923076923074 165.7076923076935 0  258.115384615384 164.7846153846181 0  258.3384615384605 163.8615384615427 0  258.5615384615395 162.9384615384572 0  258.784615384616 162.0153846153819 0  259.0076923076926 161.0923076923065 0  259.2307692307691 160.1692307692311 0  259.4538461538457 159.2461538461558 0  259.6769230769222 158.3230769230804 0  259.750000000001 156.512500000006 0  259.6000000000014 155.6250000000082 0  259.4500000000029 154.7375000000176 0  259.3000000000018 153.8500000000108 0  259.1500000000007 152.962500000004 0  259.0000000000004 152.0750000000026 0  258.849999999999 151.187499999994 0  258.9875000000052 149.4499999999846 0  259.275000000002 148.5999999999941 0  259.5624999999954 147.7500000000135 0  259.849999999995 146.900000000015 0  260.1374999999945 146.0500000000164 0  260.4249999999913 145.2000000000259 0  260.7124999999948 144.3500000000154 0  260.0700000000398 143.5899999999961 0  259.1400000000573 143.6799999999944 0  258.2100000000351 143.7699999999966 0  257.2800000000262 143.8599999999975 0  256.350000000011 143.9499999999989 0  255.4199999999881 144.0400000000011 0  254.4899999999726 144.1300000000026 0  253.5599999999944 144.2200000000005 0  252.6300000000009 144.3099999999999 0  251.4166666666658 143.4499999999971 0  251.1333333333388 142.5000000000182 0  250.8500000000015 141.5500000000051 0  250.5666666666612 140.5999999999818 0  250.2833333333342 139.6500000000029 0  249.2500000000005 138.5500000000001 0  248.5000000000011 138.4000000000002 0  247.7499999999995 138.2499999999999 0  246.7750000000005 137.1875000000023 0  246.5500000000021 136.2750000000085 0  246.3250000000036 135.3625000000147 0  246.1000000000042 134.450000000017 0  245.8750000000022 133.5375000000088 0  245.650000000003 132.6250000000124 0  245.4250000000046 131.7125000000187 0  245.619999999996 129.9200000000084 0  246.0399999999992 129.0400000000017 0  246.4599999999987 128.1600000000028 0  246.8800000000001 127.2799999999997 0  246.8399999999988 125.6199999999979 0  246.3799999999984 124.8399999999973 0  245.9199999999991 124.0599999999985 0  245.4600000000036 123.2800000000062 0  245.0000000000049 122.5000000000082 0  244.5400000000036 121.7200000000062 0  244.0800000000033 120.9400000000056 0  243.6200000000016 120.1600000000027 0  243.1600000000012 119.3800000000021 0  241.9812499999996 117.9187499999997 0  241.2625000000007 117.2375000000007 0  240.5437500000017 116.5562500000017 0  239.8250000000041 115.875000000004 0  239.1062500000066 115.1937500000063 0  238.3875000000076 114.5125000000072 0  237.6687500000087 113.8312500000082 0  236.9500000000083 113.1500000000079 0  236.231250000008 112.4687500000076 0  235.512500000009 111.7875000000085 0  234.7937500000045 111.1062500000043 0  234.0750000000042 110.4250000000039 0  233.3562500000066 109.7437500000062 0  232.6375000000021 109.062500000002 0  231.9187500000031 108.381250000003 0  230.5500000000004 107.0375000000004 0  229.9000000000021 106.3750000000021 0  229.2500000000038 105.7125000000039 0  228.6000000000041 105.0500000000042 0  227.9500000000018 104.3875000000018 0  227.2999999999952 103.7249999999951 0  226.6500000000024 103.0625000000024 0  226.0555555555555 101.4555555555556 0  226.1111111111111 100.5111111111111 0  226.1666666666667 99.56666666666668 0  226.2222222222222 98.62222222222223 0  226.2777777777778 97.67777777777778 0  226.3333333333333 96.73333333333335 0  226.3888888888889 95.78888888888889 0  226.4444444444445 94.84444444444446 0  226 93.22499999999999 0  225.5000000000026 92.55000000000358 0  225.0000000000026 91.87500000000358 0  224.5 90.31250000000068 0  224.5 89.4250000000097 0  224.5 88.53750000001317 0  224.5 87.65000000001388 0  224.5 86.76250000001457 0  224.5 85.87500000001248 0  224.5 84.9874999999993 0  225.1666666666659 83.41333333333409 0  225.8333333333319 82.72666666666818 0  226.4999999999978 82.04000000000228 0  227.1666666666649 81.35333333333514 0  227.8333333333301 80.66666666667 0  228.4999999999942 79.980000000006 0  229.1666666666601 79.2933333333401 0  229.8333333333316 78.60666666666847 0  230.4999999999975 77.92000000000257 0  231.1666666666644 77.23333333333572 0  231.8333333333295 76.54666666667057 0  232.4999999999972 75.86000000000287 0  233.1666666666681 75.17333333333181 0  233.8333333333368 74.48666666666306 0  233.7499999999995 73.16666666666629 0  233.0000000000018 72.53333333333488 0  232.2500000000014 71.90000000000116 0  231.5000000000009 71.26666666666743 0  230.7500000000005 70.63333333333372 0  229.233333333333 68.75000000000006 0  230.0666666666665 68.60000000000004 0  230.8999999999995 68.45000000000009 0  231.7333333333325 68.30000000000015 0  232.566666666667 68.14999999999995 0  232.5499999999897 68.50000000000607 0  231.7 69 0  230.8500000000103 69.49999999999393 0  227.8300000000008 68.16000000000106 0  227.2600000000064 67.42000000000837 0  226.6900000000077 66.68000000001001 0  226.1200000000024 65.94000000000314 0  225.5500000000108 65.20000000001409 0  224.9800000000098 64.46000000001268 0  224.4100000000007 63.72000000000098 0  223.8399999999971 62.97999999999621 0  223.2699999999993 62.23999999999915 0  222.753846153846 60.56923076923239 0  222.8076923076921 59.63846153846478 0  222.8615384615381 58.70769230769827 0  222.9153846153842 57.77692307693071 0  222.9692307692302 56.84615384616315 0  223.0230769230761 55.91538461539836 0  223.0769230769224 54.98461538462665 0  223.1307692307688 54.05384615385345 0  223.184615384615 53.12307692308312 0  223.2384615384611 52.19230769231556 0  223.2923076923071 51.26153846154906 0  223.3461538461533 50.33076923077847 0  222.8400000000024 48.62000000000327 0  222.2800000000047 47.84000000000661 0  221.7200000000005 47.06000000000071 0  221.1600000000003 46.28000000000039 0  221.4500000000116 45.87500000000512 0  222.3 46.25 0  223.1499999999884 46.62499999999488 0  223.5600000000055 46.22000000000981 0  223.1199999999987 45.43999999999767 0  222.6800000000061 44.66000000001075 0  222.2399999999969 43.8799999999944 0  221.6400000000004 42.16000000000253 0  221.4800000000009 41.22000000000548 0  221.3200000000014 40.28000000000801 0  221.1600000000009 39.34000000000556 0  220.25 38.45 0  219.4749999999999 39.30000000000165 0  219.45 40.09999999999999 0  219.425 40.90000000000112 0  219.0166666666641 40.89999999999463 0  218.6333333333375 40.10000000000875 0  218.2500000000016 39.30000000000339 0  217.8666666666635 38.49999999999351 0  217.483333333337 37.70000000000762 0  216.1750000000165 36.78750000000201 0  215.2500000000275 36.67500000000335 0  214.3250000000385 36.56250000000469 0  213.4000000000277 36.45000000000337 0  212.4750000000059 36.33750000000072 0  211.5499999999838 36.22499999999803 0  210.6249999999835 36.11249999999799 0  209.6600000000001 35.14000000000318 0  209.6200000000001 34.28000000000268 0  209.5800000000001 33.42000000000284 0  209.5399999999998 32.55999999999681 0  208.6200000000117 31.34000000000476 0  207.7400000000138 30.98000000000564 0  206.8600000000162 30.62000000000662 0  205.9800000000174 30.26000000000711 0  204.2000000000054 30.02499999999925 0  203.2999999999946 30.15000000000076 0  202.3999999999945 30.27500000000076 0  201.2444444444438 31.32222222222468 0  200.9888888888895 32.24444444
[...]
<PointData  Vectors="f_12"> 
<DataArray  type="Float64"  Name="f_12"  NumberOfComponents="3" format="ascii">5.5740295137473272e-01 1.4699362422705292e-01 7.7836039314165206e-01  5.5666193511793649e-01 1.4559473303187917e-01 7.7597737476108075e-01  5.5579719082680756e-01 1.4398173423457045e-01 7.7315743820503724e-01  5.5541672649603391e-01 1.4328107798713857e-01 7.7190184420442021e-01  5.5294748952244621e-01 1.3882283153657435e-01 7.6356529873057988e-01  5.5146699125841914e-01 1.3623356527851183e-01 7.5840352027564040e-01  5.5099922715724181e-01 1.3542408368485853e-01 7.5674883159842665e-01  5.4910173695466769e-01 1.3225062489105907e-01 7.4989637588945723e-01  5.4643883141758431e-01 1.2792331739114365e-01 7.3998825764594189e-01  5.4514552939653593e-01 1.2590894178886800e-01 7.3501363030080624e-01  5.4079526286541701e-01 1.1940315055479481e-01 7.1770701641016832e-01  5.3948037901264823e-01 1.1752700497791249e-01 7.1229097535101604e-01  5.3781211332327328e-01 1.1523134526440365e-01 7.0528111272748084e-01  5.3427186736311494e-01 1.1060674157418879e-01 6.8995395637915591e-01  5.3251142971911303e-01 1.0842687968449416e-01 6.8210480624807224e-01  5.3133953240994791e-01 1.0701521618160696e-01 6.7680100703292057e-01  5.3109951157399371e-01 1.0673095515739504e-01 6.7570581890832548e-01  5.3067739482500265e-01 1.0623352082134573e-01 6.7377377760040424e-01  5.3053875382408955e-01 1.0607034897546092e-01 6.7313731035510960e-01  5.3058664169241387e-01 1.0612577496221658e-01 6.7335715233110849e-01  5.3056651298904101e-01 1.0610244697775209e-01 6.7326476138286984e-01  5.3056166984308162e-01 1.0609677612305898e-01 6.7324252544570873e-01  5.3084701220817354e-01 1.0642843452287487e-01 6.7455055592976787e-01  5.3131164741754189e-01 1.0697298566574502e-01 6.7667244987988207e-01  5.3120209559842169e-01 1.0684402726619172e-01 6.7617310259406072e-01  5.3133425979703275e-01 1.0699961154609908e-01 6.7677547919634296e-01  5.3134320394637879e-01 1.0701016873252797e-01 6.7681620805530263e-01  5.3136559355870239e-01 1.0703656986391397e-01 6.7691816532501026e-01  5.3136557680657004e-01 1.0703655018598106e-01 6.7691808904706174e-01  5.3136071317235756e-01 1.0703082718424016e-01 6.7689593958435701e-01  5.3141241017817109e-01 1.0709187044083214e-01 6.7713127705031095e-01  5.3148069264760323e-01 1.0717263753806275e-01 6.7744190292422568e-01  5.3152753476382364e-01 1.0722808427112425e-01 6.7765488840519228e-01  5.3153877613452394e-01 1.0724139980274419e-01 6.7770598373757818e-01  5.3153956375601896e-01 1.0724233322305446e-01 6.7770956363469059e-01  5.3149233679220653e-01 1.0718641889225436e-01 6.7749486829098893e-01  5.3142643526752187e-01 1.0710851464825603e-01 6.7719506110080474e-01  5.3110736706682005e-01 1.0673272184623617e-01 6.7574083723394374e-01  5.3101160101740719e-01 1.0662052224454782e-01 6.7530337682621300e-01  5.3095738254367364e-01 1.0655705079937280e-01 6.7505557694255425e-01  5.3080371699358553e-01 1.0637780359221635e-01 6.7435240101298088e-01  5.3080813102957314e-01 1.0638295870064714e-01 6.7437260997357917e-01  5.3089993369140531e-01 1.0648997712969040e-01 6.7479280393653718e-01  5.3086943033488398e-01 1.0645441662675147e-01 6.7465320693530595e-01  5.3075194688562666e-01 1.0631772213571759e-01 6.7411525427815711e-01  5.3065796668174947e-01 1.0620923700060730e-01 6.7368449392109431e-01  5.3064342762195171e-01 1.0619392132939856e-01 6.7361800677119676e-01  5.3068304818205658e-01 1.0624052780375071e-01 6.7379975603038222e-01  5.3085218566758530e-01 1.0643957862635535e-01 6.7457486391113786e-01  5.3103919131452737e-01 1.0665995712532687e-01 6.7543047114398924e-01  5.3127563231418073e-01 1.0693968398303096e-01 6.7650952032892075e-01  5.3161597412109429e-01 1.0734428945626565e-01 6.7805842804849181e-01  5.3191581296458390e-01 1.0770319666928466e-01 6.7941827337928795e-01  5.3212826096055521e-01 1.0795857938319932e-01 6.8037955413432027e-01  5.3234478227802118e-01 1.0822043104590921e-01 6.8135683250559154e-01  5.3275486477536826e-01 1.0871974743241149e-01 6.8320223729415686e-01  5.3377789506134565e-01 1.0999261147815133e-01 6.8776180630137373e-01  5.3609981611905078e-01 1.1295819438812570e-01 6.9794307964799018e-01  5.3650961381563000e-01 1.1349169107836199e-01 6.9971692581641820e-01  5.3816805213799634e-01 1.1572179527648188e-01 7.0678514599012565e-01  5.4131906276855601e-01 1.2014520166538889e-01 7.1984914674708722e-01  5.4180475718632515e-01 1.2084754326677251e-01 7.2182130958121415e-01  5.4216183147983443e-01 1.2137610024994629e-01 7.2325684668259327e-01  5.4336258347679811e-01 1.2317243830028927e-01 7.2803869960645595e-01  5.4489886836176293e-01 1.2550703954034786e-01 7.3407249268865860e-01  5.4841990192717016e-01 1.3112428274397842e-01 7.4739485479291567e-01  5.5026127101202216e-01 1.3418320166552561e-01 7.5410821987326149e-01  5.5077554072737367e-01 1.3505032265930819e-01 7.5595424676098033e-01  5.5109658609414591e-01 1.3559892625160250e-01 7.5709480951668773e-01  5.5170202100150023e-01 1.3664177511851608e-01 7.5923177844775436e-01  5.5154318341527697e-01 1.3636532556218223e-01 7.5867455603887013e-01  5.5262381671608352e-01 1.3825041545922778e-01 7.6244880065225940e-01  5.5457124225304932e-01 1.4173378407932016e-01 7.6908619732456429e-01  5.5479682845903666e-01 1.4214219173989334e-01 7.6984249114990433e-01  5.5317526962028252e-01 1.3923112323994302e-01 7.6434487307012045e-01  5.5575643636063043e-01 1.4391166719739412e-01 7.7301985097155457e-01  5.5664742486962004e-01 1.4557109075489652e-01 7.7592796449111445e-01  5.5695989590980821e-01 1.4615677631829724e-01 7.7693923202184800e-01  5.5732565541924572e-01 1.4684719706971888e-01 7.7811322102876412e-01  5.5737251808832389e-01 1.4693590616813160e-01 7.7826315118909595e-01  5.5739904232436899e-01 1.4698621239174450e-01 7.7834790324853742e-01  5.5739060654045525e-01 1.4697021442798439e-01 7.7832095097926290e-01  5.5738098609727638e-01 1.4695196649042544e-01 7.7829021288270306e-01  5.5735107786010196e-01 1.4689526564040745e-01 7.7819459878432062e-01  5.5731270894134488e-01 1.4682256145117339e-01 7.7807185697692671e-01  5.5726311566248909e-01 1.4672863358131047e-01 7.7791309059213309e-01  5.5720496764408023e-01 1.4661857252459104e-01 7.7772676054390544e-01  5.5713974761941365e-01 1.4649521635994722e-01 7.7751754439031517e-01  5.5706944700686645e-01 1.4636236116491894e-01 7.7729175677854967e-01  5.5699410685835682e-01 1.4622011798880732e-01 7.7704947102500788e-01  5.5691529326130484e-01 1.4607146699330964e-01 7.7679567290688900e-01  5.5683428493799814e-01 1.4591884421282164e-01 7.7653443173613856e-01  5.5674995287037454e-01 1.4576015275981694e-01 7.7626206925525820e-01  5.5657948955821968e-01 1.4543997026028654e-01 7.7571031891435127e-01  5.5649932288810500e-01 1.4528967179842009e-01 7.7545027411394818e-01  5.5641883187134056e-01 1.4513896237247681e-01 7.7518880837424786e-01  5.5633797112643346e-01 1.4498775799972180e-01 7.7492577709435639e-01  5.5625726364412964e-01 1.4483703867616576e-01 7.7466287829955438e-01  5.5617731449918417e-01 1.4468792748278422e-01 7.7440209759306344e-01  5.5609801241124823e-01 1.4454021761653332e-01 7.7414308181274216e-01  5.5602073642246863e-01 1.4439646631831521e-01 7.7389035903121439e-01  5.5594756578218640e-01 1.4426052380960691e-01 7.7365076537212618e-01  5.5588118274133647e-01 1.4413734187786834e-01 7.7343315104731070e-01  5.5582701705665816e-01 1.4403695040693409e-01 7.7325540316291019e-01  5.5576461927363974e-01 1.4392160416263566e-01 7.7305025471631150e-01  5.5569287584936011e-01 1.4378928548010106e-01 7.7281393277887755e-01  5.5558404026375463e-01 1.4358880432878207e-01 7.7245489493600350e-01  5.5519829082939287e-01 1.4288013451764234e-01 7.7117793495537923e-01  5.5500070234019849e-01 1.4251840586914413e-01 7.7052100591393136e-01  5.5480568707418998e-01 1.4216240303766370e-01 7.6987046878591703e-01  5.5460998720987031e-01 1.4180619149734422e-01 7.6921548259481543e-01  5.5441323121747410e-01 1.4144911870644311e-01 7.6855478246831999e-01  5.5421589067558685e-01 1.4109205435742531e-01 7.6788993994592269e-01  5.5401888572228863e-01 1.4073666681643376e-01 7.6722405887354794e-01  5.5382322377955862e-01 1.4038474750295735e-01 7.6656060863871200e-01  5.5363057837780860e-01 1.4003929311611935e-01 7.6590530650279809e-01  5.5344175973249699e-01 1.3970170798050757e-01 7.6526103940475410e-01  5.5326024005054031e-01 1.3937810370599585e-01 7.6463985734668238e-01  5.5308999847775986e-01 1.3907546599767001e-01 7.6405563509666985e-01  5.5280769981595812e-01 1.3857582888492045e-01 7.6308294085768269e-01  5.5264002704371240e-01 1.3828034605212022e-01 7.6250291603031706e-01  5.5245795983085499e-01 1.3796036965095251e-01 7.6187139782017255e-01  5.5226779181949215e-01 1.3762709751353089e-01 7.6120992076904181e-01  5.5207300337429954e-01 1.3728671076351934e-01 7.6053036929473761e-01  5.5187623874086011e-01 1.3694384244349719e-01 7.5984187603795805e-01  5.5167711131143360e-01 1.3659780648637573e-01 7.5914304442329927e-01  5.5129827283365562e-01 1.3594144974225225e-01 7.5780830273906619e-01  5.5118089499371259e-01 1.3573853097403632e-01 7.5739327699857317e-01  5.5110193886794823e-01 1.3560208778583141e-01 7.5711359643983733e-01  5.5104890345402358e-01 1.3551043301506852e-01 7.5692545757079666e-01  5.5101781417380324e-01 1.3545661754650884e-01 7.5681502769840492e-01  5.5100296532548498e-01 1.3543079833538177e-01 7.5676220692988161e-01  5.5099890778601612e-01 1.3542361463978075e-01 7.5674772319026418e-01  5.5099444522964824e-01 1.3541599870128709e-01 7.5673187250467733e-01  5.5097365972801549e-01 1.3538077305441973e-01 7.5665809447634214e-01  5.5092952855957622e-01 1.3530593285900147e-01 7.5650129355180529e-01  5.5085701389181418e-01 1.3518303342118798e-01 7.5624329955479075e-01  5.5074870041594692e-01 1.3499971640201738e-01 7.5585720522521205e-01  5.5059777114711406e-01 1.3474483974905496e-01 7.5531783979604039e-01  5.5039566938940099e-01 1.3440465231204035e-01 7.5459313330310018e-01  5.5012675065417294e-01 1.3395389020008247e-01 7.5362454464623230e-01  5.4975071137472664e-01 1.3332679144667811e-01 7.5226244876706039e-01  5.4833379001434845e-01 1.3098601423074568e-01 7.4707507610744772e-01  5.4779032535468042e-01 1.3009776897079883e-01 7.4506283188252398e-01  5.4732582122344953e-01 1.2934446814280595e-01 7.4333019183165505e-01  5.4693391279380832e-01 1.2871345617683691e-01 7.4185917524989842e-01  5.4662257361314803e-01 1.2821531954378482e-01 7.4068467780850178e-01  5.4632530617939634e-01 1.2774478263140515e-01 7.3955510557896920e-01  5.4608431604552454e-01 1.2736730924771444e-01 7.3863279998791076e-01  5.4572393572478151e-01 1.2680567747056970e-01 7.3724759430125764e-01  5.4436361344432282e-01 1.2470550229740135e-01 7.3197397325393454e-01  5.4377013312253519e-01 1.2380042059781143e-01 7.2964851136291542e-01  5.4323890957750420e-01 1.2299785203430054e-01 7.2755104919422930e-01  5.4274112398510377e-01 1.2225271219444324e-01 7.2557159054736198e-01  5.4226435657359839e-01 1.2154546949472364e-01 7.2366290219210261e-01  5.4179847260431080e-01 1.2086030854740937e-01 7.2178595710653448e-01  5.4132806906278408e-01 1.2017418826378261e-01 7.1987929069526557e-01  5.4032221623232501e-01 1.1872324051082485e-01 7.1576849315893876e-01  5.3999946097758567e-01 1.1826216843893611e-01 7.1443986278870486e-01  5.3975630589107626e-01 1.1791669098503489e-01 7.1343516847079480e-01  5.3957911774043577e-01 1.1766609205476568e-01 7.1270096796520988e-01  5.3939670301013198e-01 1.1740992328480698e-01 7.1194256801260014e-01  5.3926235984979765e-01 1.1722259310139659e-01 7.1138233160990083e-01  5.3910113193651887e-01 1.1699850359211632e-01 7.1070884460010397e-01  5.3892222931929923e-01 1.1675066303928998e-01 7.0996013601863217e-01  5.3873473427081531e-01 1.1649181544163038e-01 7.0917390789000800e-01  5.3854223590766392e-01 1.1622699911397980e-01 7.0836500599992636e-01  5.3834843999933590e-01 1.1596135461710651e-01 7.0754890746978161e-01  5.3815756159462225e-01 1.1570065591193353e-01 7.0674338696756178e-01  5.3797452100206056e-01 1.1545156345807728e-01 7.0596932192323769e-01  5.3763282334815021e-01 1.1498927289707211e-01 7.0451960019360471e-01  5.3743027153630363e-01 1.1471690664340241e-01 7.0365730727971032e-01  5.3721811876492254e-01 1.1443276972174835e-01 7.0275206438394855e-01  5.3699903565650631e-01 1.1414059397469666e-01 7.0181492732985185e-01  5.3677560190366569e-01 1.1384387066057340e-01 7.0085681387817977e-01  5.3654954203889482e-01 1.1354496454433662e-01 6.9988497278210093e-01  5.3632151376239845e-01 1.1324479045675030e-01 6.9890213608917418e-01  5.3609243619913094e-01 1.1294458268150465e-01 6.9791221799218039e-01  5.3586332303112805e-01 1.1264567067166539e-01 6.9691959883242005e-01  5.3563419945655577e-01 1.1234810568983153e-01 6.9592435354292381e-01  5.3540550423497268e-01 1.1205243946278380e-01 6.9492842210248562e-01  5.3517785331358603e-01 1.1175944528964023e-01 6.9393453454374499e-01  5.3495052136483379e-01 1.1146819866931020e-01 6.9293951146752464e-01  5.3472485200747033e-01 1.1118044006479819e-01 6.9194920860635400e-01  5.3449905190642688e-01 1.1089382482653248e-01 6.9095585286346894e-01  5.3405990681236193e-01 1.1034008481434758e-01 6.8901694401017455e-01  5.3385204623323634e-01 1.1007971724347920e-01 6.8809591658549085e-01  5.3364599252890366e-01 1.0982268680603512e-01 6.8718086439441783e-01  5.3343999192566016e-01 1.0956687783212125e-01 6.8626386710263487e-01  5.3323284601189924e-01 1.0931075169560828e-01 6.8533965899031424e-01  5.3302016887404813e-01 1.0904893655281263e-01 6.8438854040036057e-01  5.3279183149334830e-01 1.0876909751770818e-01 6.8336487086634368e-01  5.3224628901733306e-01 1.0810460620547800e-01 6.8091057846550540e-01  5.3205724763408258e-01 1.0787569409313412e-01 6.8005728698610246e-01  5.3190136107705455e-01 1.0768760410570163e-01 6.7935227956957966e-01  5.3176730864542121e-01 1.0752638363778151e-01 6.7874499932683441e-01  5.3165026104492186e-01 1.0738601435211846e-01 6.7821400031483070e-01  5.3154832539000763e-01 1.0726407403760713e-01 6.7775099413296691e-01  5.3146085719599367e-01 1.0715966788465382e-01 6.7735328988160570e-01  5.3138889135468736e-01 1.0707392646320511e-01 6.7702579042352429e-01  5.3130121691884724e-01 1.0696974034371398e-01 6.7662636114259356e-01  5.3124613261083664e-01 1.0690444107980129e-01 6.7637514394963394e-01  5.3118124582213766e-01 1.0682761647541471e-01 6.7607904008958619e-01  5.3101540469465180e-01 1.0663159510073703e-01 6.7532151419388875e-01  5.3095012077581838e-01 1.0655455295007245e-01 6.7502301988619640e-01  5.3089412345342424e-01 1.0648853578917637e-01 6.7476682387550657e-01  5.3084438451224591e-01 1.0642994735356395e-01 6.7453913090796125e-01  5.3079961818025501e-01 1.0637725453734136e-01 6.7433409376339193e-01  5.3075861083157749e-01 1.0632901426092808e-01 6.7414618219974964e-01  5.3071993038933185e-01 1.0628352898255221e-01 6.7396885581030830e-01  5.3064091269000524e-01 1.0619063246476436e-01 6.7360640195100441e-01  5.3061736237299439e-01 1.0616294467771945e-01 6.7349832193401993e-01  5.3059968400029489e-01 1.0614215591571696e-01 6.7341716871558110e-01  5.3058588239516535e-01 1.0612592003487142e-01 6.7335379825044483e-01  5.3057493503387265e-01 1.0611303509593009e-01 6.7330352437015528e-01  5.3056619718264819e-01 1.0610274388297872e-01 6.7326339160853621e-01  5.3055922966113866e-01 1.0609453133597850e-01 6.7323138618200584e-01  5.3055369472219971e-01 1.0608800193245492e-01 6.7320595887991153e-01  5.3054932082202011e-01 1.0608283775176094e-01 6.7318586374073897e-01  5.3054589960799658e-01 1.0607879537029814e-01 6.7317014455991342e-01  5.3054327208859120e-01 1.0607568880867965e-01 6.7315807151138018e-01  5.3054131373004043e-01 1.0607337282343519e-01 6.7314907289087678e-01  5.3053994194574305e-01 1.0607175084442264e-01 6.7314276951112184e-01  5.3053912506777623e-01 1.0607078530966746e-01 6.7313901594025305e-01  5.3053952097013279e-01 1.0607123714943771e-01 6.7314083319800511e-01  5.3054172489746732e-01 1.0607378666178992e-01 6.7315095350862197e-01  5.3054544863170217e-01 1.0607809345213499e-01 6.7316805201352847e-01  5.3055071541687016e-01 1.0608418473577992e-01 6.7319223463352929e-01  5.3055762811109641e-01 1.0609217852761710e-01 6.7322397238727738e-01  5.3057362172348654e-01 1.0611067452113616e-01 6.7329739254114063e-01  5.3056774302802878e-01 1.0610384795530949e-01 6.7327040767212054e-01  5.3056489797321205e-01 1.0610053688520929e-01 6.7325734672121762e-01  5.3056316899824407e-01 1.0609852287949464e-01 6.7324940873253958e-01  5.3056215079756530e-01 1.0609733649998541e-01 6.7324473376165528e-01  5.3056224761199544e-01 1.0609744930434165e-01 6.7324517828604247e-01  5.3056358707443929e-01 1.0609901026703104e-01 6.7325132828674239e-01  5.3056557098040547e-01 1.0610132459134249e-01 6.7326043672667335e-01  5.3060682813787741e-01 1.0614917402767422e-01 6.7344979250839498e-01  5.3062535128651600e-01 1.0617064948533242e-01 6.7353478437871495e-01  5.3064464930607846e-01 1.0619303296410888e-01 6.7362331411167420e-01  5.3066532324706439e-01 1.0621702516074566e-01 6.7371813565903715e-01  5.3068771273585291e-01 1.0624302386211627e-01 6.7382080179587334e-01  5.3071204981140074e-01 1.0627130242276414e-01 6.7393237034925169e-01  5.3073871377478277e-01 1.0630230630622793e-01 6.7405457188602846e-01  5.3076835607156414e-01 1.0633679860350147e-01 6.7419038117628272e-01  5.3080246895946859e-01 1.0637652330574529e-01 6.7434661980772759e-01  5.3089299326159844e-01 1.0648206347597626e-01 6.7476099701100245e-01  5.3092967202776653e-01 1.0652487744068573e-01 6.7492880039319536e-01  5.3096319488542942e-01 1.0656403848573646e-01 6.7508210983260530e-01  5.3099462146374377e-01 1.0660077942891021e-01 6.7522578186422799e-01  5.3102452656015775e-01 1.0663576726891516e-01 6.7536245362536140e-01  5.3105301400772975e-01 1.0666911986437169e-01 6.7549260625426832e-01  5.3108012725673570e-01 1.0670088449224886e-01 6.7561644450272151e-01  5.3110581712780935e-01 1.0673100017512625e-01 6.7573374952640819e-01  5.3112997044709853e-01 1.0675933091766657e-01 6.7584401032328156e-01  5.3115233382658888e-01 1.0678557631207952e-01 6.7594607580494148e-01  5.3117257597071776e-01 1.0680934411785442e-01 6.7603844019923476e-01  5.3119003347305893e-01 1.0682985173699654e-01 6.7611808309888566e-01  5.3121458799068100e-01 1.0685871792464659e-01 6.7623007128290091e-01  5.3123190346550564e-01 1.0687908925271496e-01 6.7630902039933494e-01  5.3125237825987048e-01 1.0690318759718585e-01 6.7640235596446030e-01  5.3127675210233694e-01 1.0693188633347284e-01 6.7651344197868257e-01  5.3132786294159229e-01 1.0699208190444165e-01 6.7674633342103829e-01  5.3133239001729193e-01 1.0699741142686246e-01 6.7676696021222427e-01  5.3133384376287174e-01 1.0699912211643701e-01 6.7677358375323482e-01  5.3133387249173070e-01 1.0699915592374862e-01 6.7677371463799763e-01  5.3133320382423976e-01 1.0699836998592858e-01 6.7677066772252292e-01  5.3133336356495831e-01 1.0699856163950419e-01 6.7677139321864788e-01  5.3133638331476196e-01 1.0700212483815039e-01 6.7678514515502708e-01  5.3135171072968179e-01 1.0702020022378214e-01 6.7685494869218277e-01  5.3135807276991631e-01 1.0702770241777564e-01 6.7688392006556319e-01  5.3136231078251572e-01 1.0703269943764732e-01 6.7690321798748421e-01  5.3136475392601201e-01 1.0703557993795565e-01 6.7691434234427339e-01  5.3136553693268729e-01 1.0703650314243560e-01 6.7691790749451652e-01  5.3136503059851026e-01 1.0703590635817786e-01 6.7691560207031509e-01  5.3136360259622306e-01 1.0703422341113299e-01 6.7690909995394899e-01  5.3136180840536407e-01 1.0703211057115250e-01 6.7690092974094207e-01  5.3137372295377727e-01 1.0704618680274691e-01 6.7695517203132505e-01  5.3138478277460532e-01 1.0705924391405504e-01 6.7700552272526748e-01  5.3139450858957038e-01 1.0707072761371704e-01 6.7704979627843531e-01  5.3140272618715556e-01 1.0708043200723959e-01 6.7708720116757393e-01  5.3140901292907228e-01 1.0708785731359732e-01 6.7711581527091991e-01  5.3141532042190298e-01 1.0709530965358063e-01 6.7714452122499869e-01  5.3142004702846213e-01 1.0710089655517514e-01 6.7716603027867728e-01  5.3142594782