<?xml version="1.0"?>
<VTKFile type="UnstructuredGrid"  version="0.1"  >
<UnstructuredGrid>
<Piece  NumberOfPoints="7288" NumberOfCells="14083">
<Points>
<DataArray  type="Float64"  NumberOfComponents="3"  format="ascii">239.8 188 0  250.2 180 0  258.2 172.4 0  257 169.4 0  259.9 157.4 0  258.7 150.3 0  261 143.5 0  251.7 144.4 0  250 138.7 0  247 138.1 0  245.2 130.8 0  247.3 126.4 0  242.7 118.6 0  231.2 107.7 0  226 102.4 0  226.5 93.90000000000001 0  224.5 91.19999999999999 0  224.5 84.09999999999999 0  234.5 73.80000000000001 0  228.4 68.90000000000001 0  230 70 0  233.4 68 0  222.7 61.5 0  220.6 45.5 0  223.4 49.40000000000001 0  224 47 0  221.8 43.09999999999999 0  221 38.40000000000001 0  219.5 38.5 0  219.4 41.69999999999999 0  217.1 36.90000000000001 0  209.7 36 0  209.5 31.69999999999999 0  205.1 29.90000000000001 0  201.5 30.40000000000001 0  199.2 38.69999999999999 0  201.8 41.40000000000001 0  194.8 53.80000000000001 0  196.1 57.69999999999999 0  193 59 0  191.4 66.09999999999999 0  193.5 66.5 0  194.1 64.40000000000001 0  195.6 64.69999999999999 0  195.4 72.40000000000001 0  199.5 77.30000000000001 0  197.7 86.90000000000001 0  200.6 87.5 0  201.5 91 0  198 94.80000000000001 0  198.6 100 0  197.3 105.4 0  198 109.5 0  197 112.7 0  198.3 116.1 0  201.3 122 0  207.2 121 0  208.1 126.7 0  205.6 127.9 0  209.1 134.9 0  210.9 144.4 0  210.1 147.9 0  213 148.4 0  215.4 149.3 0  215.1 152.8 0  219.9 159.7 0  220.3 163.2 0  218.7 164.9 0  219.9 166.7 0  221.9 169.7 0  220 170.3 0  224.9 174.7 0  229.8 177.4 0  229.7 181 0  228 172.9 0  239 178 0  240.4 180 0  239 181.5 0  241.2 185.9 0  242.95 187.99 0  240.5875 187.9975 0  241.375 187.995 0  242.1625 187.9925 0  243.6090909090879 187.2636363636397 0  244.2681818181765 186.5372727272785 0  244.9272727272692 185.810909090913 0  245.5863636363531 185.0845454545571 0  246.245454545445 184.3581818181923 0  246.9045454545351 183.6318181818295 0  247.5636363636303 182.9054545454612 0  248.2227272727197 182.1790909090992 0  248.8818181818179 181.4527272727275 0  249.5409090909066 180.7263636363664 0  250.8666666666961 179.3666666666387 0  251.5333333334033 178.7333333332668 0  252.2000000000994 178.0999999999055 0  252.8666666668011 177.466666666539 0  253.5333333335083 176.8333333331671 0  254.2000000002044 176.1999999998058 0  254.8666666669005 175.5666666664445 0  255.5333333336077 174.9333333330727 0  256.2000000002685 174.2999999997449 0  256.8666666668457 173.6666666664966 0  257.5333333334283 173.033333333243 0  257.9000000000077 171.6500000000191 0  257.6000000000015 170.9000000000038 0  257.2999999999954 170.1499999999885 0  257.2230769230778 168.4769230769195 0  257.4461538461543 167.5538461538442 0  257.6692307692309 166.6307692307688 0  257.8923076923074 165.7076923076935 0  258.115384615384 164.7846153846181 0  258.3384615384605 163.8615384615427 0  258.5615384615395 162.9384615384572 0  258.784615384616 162.0153846153819 0  259.0076923076926 161.0923076923065 0  259.2307692307691 160.1692307692311 0  259.4538461538457 159.2461538461558 0  259.6769230769222 158.3230769230804 0  259.750000000001 156.512500000006 0  259.6000000000014 155.6250000000082 0  259.4500000000029 154.7375000000176 0  259.3000000000018 153.8500000000108 0  259.1500000000007 152.962500000004 0  259.0000000000004 152.0750000000026 0  258.849999999999 151.187499999994 0  258.9875000000052 149.4499999999846 0  259.275000000002 148.5999999999941 0  259.5624999999954 147.7500000000135 0  259.849999999995 146.900000000015 0  260.1374999999945 146.0500000000164 0  260.4249999999913 145.2000000000259 0  260.7124999999948 144.3500000000154 0  260.0700000000398 143.5899999999961 0  259.1400000000573 143.6799999999944 0  258.2100000000351 143.7699999999966 0  257.2800000000262 143.8599999999975 0  256.350000000011 143.9499999999989 0  255.4199999999881 144.0400000000011 0  254.4899999999726 144.1300000000026 0  253.5599999999944 144.2200000000005 0  252.6300000000009 144.3099999999999 0  251.4166666666658 143.4499999999971 0  251.1333333333388 142.5000000000182 0  250.8500000000015 141.5500000000051 0  250.5666666666612 140.5999999999818 0  250.2833333333342 139.6500000000029 0  249.2500000000005 138.5500000000001 0  248.5000000000011 138.4000000000002 0  247.7499999999995 138.2499999999999 0  246.7750000000005 137.1875000000023 0  246.5500000000021 136.2750000000085 0  246.3250000000036 135.3625000000147 0  246.1000000000042 134.450000000017 0  245.8750000000022 133.5375000000088 0  245.650000000003 132.6250000000124 0  245.4250000000046 131.7125000000187 0  245.619999999996 129.9200000000084 0  246.0399999999992 129.0400000000017 0  246.4599999999987 128.1600000000028 0  246.8800000000001 127.2799999999997 0  246.8399999999988 125.6199999999979 0  246.3799999999984 124.8399999999973 0  245.9199999999991 124.0599999999985 0  245.4600000000036 123.2800000000062 0  245.0000000000049 122.5000000000082 0  244.5400000000036 121.7200000000062 0  244.0800000000033 120.9400000000056 0  243.6200000000016 120.1600000000027 0  243.1600000000012 119.3800000000021 0  241.9812499999996 117.9187499999997 0  241.2625000000007 117.2375000000007 0  240.5437500000017 116.5562500000017 0  239.8250000000041 115.875000000004 0  239.1062500000066 115.1937500000063 0  238.3875000000076 114.5125000000072 0  237.6687500000087 113.8312500000082 0  236.9500000000083 113.1500000000079 0  236.231250000008 112.4687500000076 0  235.512500000009 111.7875000000085 0  234.7937500000045 111.1062500000043 0  234.0750000000042 110.4250000000039 0  233.3562500000066 109.7437500000062 0  232.6375000000021 109.062500000002 0  231.9187500000031 108.381250000003 0  230.5500000000004 107.0375000000004 0  229.9000000000021 106.3750000000021 0  229.2500000000038 105.7125000000039 0  228.6000000000041 105.0500000000042 0  227.9500000000018 104.3875000000018 0  227.2999999999952 103.7249999999951 0  226.6500000000024 103.0625000000024 0  226.0555555555555 101.4555555555556 0  226.1111111111111 100.5111111111111 0  226.1666666666667 99.56666666666668 0  226.2222222222222 98.62222222222223 0  226.2777777777778 97.67777777777778 0  226.3333333333333 96.73333333333335 0  226.3888888888889 95.78888888888889 0  226.4444444444445 94.84444444444446 0  226 93.22499999999999 0  225.5000000000026 92.55000000000358 0  225.0000000000026 91.87500000000358 0  224.5 90.31250000000068 0  224.5 89.4250000000097 0  224.5 88.53750000001317 0  224.5 87.65000000001388 0  224.5 86.76250000001457 0  224.5 85.87500000001248 0  224.5 84.9874999999993 0  225.1666666666659 83.41333333333409 0  225.8333333333319 82.72666666666818 0  226.4999999999978 82.04000000000228 0  227.1666666666649 81.35333333333514 0  227.8333333333301 80.66666666667 0  228.4999999999942 79.980000000006 0  229.1666666666601 79.2933333333401 0  229.8333333333316 78.60666666666847 0  230.4999999999975 77.92000000000257 0  231.1666666666644 77.23333333333572 0  231.8333333333295 76.54666666667057 0  232.4999999999972 75.86000000000287 0  233.1666666666681 75.17333333333181 0  233.8333333333368 74.48666666666306 0  233.7499999999995 73.16666666666629 0  233.0000000000018 72.53333333333488 0  232.2500000000014 71.90000000000116 0  231.5000000000009 71.26666666666743 0  230.7500000000005 70.63333333333372 0  229.233333333333 68.75000000000006 0  230.0666666666665 68.60000000000004 0  230.8999999999995 68.45000000000009 0  231.7333333333325 68.30000000000015 0  232.566666666667 68.14999999999995 0  232.5499999999897 68.50000000000607 0  231.7 69 0  230.8500000000103 69.49999999999393 0  227.8300000000008 68.16000000000106 0  227.2600000000064 67.42000000000837 0  226.6900000000077 66.68000000001001 0  226.1200000000024 65.94000000000314 0  225.5500000000108 65.20000000001409 0  224.9800000000098 64.46000000001268 0  224.4100000000007 63.72000000000098 0  223.8399999999971 62.97999999999621 0  223.2699999999993 62.23999999999915 0  222.753846153846 60.56923076923239 0  222.8076923076921 59.63846153846478 0  222.8615384615381 58.70769230769827 0  222.9153846153842 57.77692307693071 0  222.9692307692302 56.84615384616315 0  223.0230769230761 55.91538461539836 0  223.0769230769224 54.98461538462665 0  223.1307692307688 54.05384615385345 0  223.184615384615 53.12307692308312 0  223.2384615384611 52.19230769231556 0  223.2923076923071 51.26153846154906 0  223.3461538461533 50.33076923077847 0  222.8400000000024 48.62000000000327 0  222.2800000000047 47.84000000000661 0  221.7200000000005 47.06000000000071 0  221.1600000000003 46.28000000000039 0  221.4500000000116 45.87500000000512 0  222.3 46.25 0  223.1499999999884 46.62499999999488 0  223.5600000000055 46.22000000000981 0  223.1199999999987 45.43999999999767 0  222.6800000000061 44.66000000001075 0  222.2399999999969 43.8799999999944 0  221.6400000000004 42.16000000000253 0  221.4800000000009 41.22000000000548 0  221.3200000000014 40.28000000000801 0  221.1600000000009 39.34000000000556 0  220.25 38.45 0  219.4749999999999 39.30000000000165 0  219.45 40.09999999999999 0  219.425 40.90000000000112 0  219.0166666666641 40.89999999999463 0  218.6333333333375 40.10000000000875 0  218.2500000000016 39.30000000000339 0  217.8666666666635 38.49999999999351 0  217.483333333337 37.70000000000762 0  216.1750000000165 36.78750000000201 0  215.2500000000275 36.67500000000335 0  214.3250000000385 36.56250000000469 0  213.4000000000277 36.45000000000337 0  212.4750000000059 36.33750000000072 0  211.5499999999838 36.22499999999803 0  210.6249999999835 36.11249999999799 0  209.6600000000001 35.14000000000318 0  209.6200000000001 34.28000000000268 0  209.5800000000001 33.42000000000284 0  209.5399999999998 32.55999999999681 0  208.6200000000117 31.34000000000476 0  207.7400000000138 30.98000000000564 0  206.8600000000162 30.62000000000662 0  205.9800000000174 30.26000000000711 0  204.2000000000054 30.02499999999925 0  203.2999999999946 30.15000000000076 0  202.3999999999945 30.27500000000076 0  201.2444444444438 31.32222222222468 0  200.9888888888895 32.24444444
[...]
<PointData  Vectors="f_12"> 
<DataArray  type="Float64"  Name="f_12"  NumberOfComponents="3" format="ascii">5.8496721282932829e-01 2.1119752707337069e-01 8.4264837777678847e-01  5.6726847002763470e-01 1.6771562356274375e-01 8.0666863880576245e-01  5.5010207450849558e-01 1.3422773807380728e-01 7.5361601628513797e-01  5.4409697086349851e-01 1.2501547029428339e-01 7.3073998732548362e-01  5.1608850554967900e-01 9.2291230516063430e-02 6.0226531706009412e-01  5.0568208828436467e-01 8.5236447773235247e-02 5.4560123190012544e-01  5.0295806001637544e-01 8.3618476980987635e-02 5.3020944087252297e-01  4.9429791543183793e-01 8.1742961644165876e-02 4.7834057413774961e-01  4.8521696345422860e-01 8.1065874951305364e-02 4.2211018388349569e-01  4.8235459315415830e-01 8.1791956138699010e-02 4.0351944039969273e-01  4.7486376797635499e-01 8.5302341778921459e-02 3.5381014359793150e-01  4.7317032967528050e-01 8.6607010815603833e-02 3.4225601941125611e-01  4.7197581339009020e-01 8.7789724809665140e-02 3.3394758848096084e-01  4.7194539971005167e-01 8.7766404575542786e-02 3.3378223347923125e-01  4.7303127227277175e-01 8.6578119581421795e-02 3.4141200751090789e-01  4.7386602338068684e-01 8.5731661564770023e-02 3.4723690351834896e-01  4.7396603206864080e-01 8.5641085105967268e-02 3.4792590208491031e-01  4.7365664615745084e-01 8.5960681620637039e-02 3.4575349115716192e-01  4.7281700414581779e-01 8.6821824822831767e-02 3.3988131460618226e-01  4.7307881949615732e-01 8.6560527151154310e-02 3.4170310347526855e-01  4.7296062815040946e-01 8.6677649258739622e-02 3.4088104623907722e-01  4.7290344200148698e-01 8.6735653104178509e-02 3.4048208477561531e-01  4.7447501127804331e-01 8.5281975309485461e-02 3.5135120597178188e-01  4.7743863712172724e-01 8.3088914900692395e-02 3.7152010463392976e-01  4.7659466360516056e-01 8.3639192927651762e-02 3.6582319771572613e-01  4.7759720154267965e-01 8.2982685665828587e-02 3.7259293543901750e-01  4.7768553281685627e-01 8.2932037013544166e-02 3.7318456354146884e-01  4.7785858783211527e-01 8.2823916933201222e-02 3.7434977780053169e-01  4.7785865312844866e-01 8.2823914756729997e-02 3.7435019294391375e-01  4.7784852689541762e-01 8.2835741378334188e-02 3.7427845962923839e-01  4.7836413533309757e-01 8.2542418813857044e-02 3.7773202233860209e-01  4.7913804534084281e-01 8.2146412120244691e-02 3.8288544477842146e-01  4.7964739452426008e-01 8.1893846503008558e-02 3.8627214438993768e-01  4.7977576532974187e-01 8.1832396069148799e-02 3.8712408006201621e-01  4.7978834053705022e-01 8.1826482793877234e-02 3.8720749824714906e-01  4.7931300424374873e-01 8.2058355611886694e-02 3.8405039534704027e-01  4.7869942373897001e-01 8.2382528854278353e-02 3.7995683574367445e-01  4.7638378928987918e-01 8.3769419058163097e-02 3.6440505544379359e-01  4.7589711105339338e-01 8.4115430609695174e-02 3.6110155278564449e-01  4.7564740743961614e-01 8.4294686958386128e-02 3.5940616215971249e-01  4.7510716020372518e-01 8.4705855106380068e-02 3.5572454267397657e-01  4.7512071637627373e-01 8.4695668041673847e-02 3.5581684200743474e-01  4.7542308498761937e-01 8.4464036587129282e-02 3.5787797394659004e-01  4.7531594444153208e-01 8.4546428473699281e-02 3.5714733510753843e-01  4.7497668264142401e-01 8.4807168965231688e-02 3.5483559742157139e-01  4.7484028767043918e-01 8.4904114932943656e-02 3.5391662080755287e-01  4.7502237802842756e-01 8.4730236519295371e-02 3.5519047067687215e-01  4.7503127292818559e-01 8.4719722625895555e-02 3.5525515792018109e-01  4.7512871475121310e-01 8.4628760226321667e-02 3.5593575584675036e-01  4.7522846086624904e-01 8.4540151825204621e-02 3.5662758238598685e-01  4.7509690493718937e-01 8.4647516166270559e-02 3.5572602369868400e-01  4.7483962536218516e-01 8.4864569767899370e-02 3.5395651533419792e-01  4.7458115958223951e-01 8.5089864098863988e-02 3.5217367607714584e-01  4.7441199971137610e-01 8.5239735577703230e-02 3.5100524113817383e-01  4.7425462431317095e-01 8.5382778682244545e-02 3.4991589312894700e-01  4.7401393127638974e-01 8.5606576964137093e-02 3.4824663153932006e-01  4.7372841449672481e-01 8.5890721444125434e-02 3.4625340662768855e-01  4.7402398226765152e-01 8.5659822637137326e-02 3.4826260721681634e-01  4.7419656884454020e-01 8.5508530575387584e-02 3.4945060956049900e-01  4.7543014424805763e-01 8.4563725587892838e-02 3.5786260006507675e-01  4.7922289127234463e-01 8.2292240377671050e-02 3.8335210133156911e-01  4.7996237344531928e-01 8.1933526100086085e-02 3.8827207292423999e-01  4.8056527129705529e-01 8.1769745128772206e-02 3.9219201875540505e-01  4.8276282226563977e-01 8.1237973739319652e-02 4.0643223273120210e-01  4.8598588437835066e-01 8.0658282475268489e-02 4.2718135535206486e-01  4.9710020050519044e-01 8.2371553203960488e-02 4.9532263909976276e-01  5.0577934219751797e-01 8.5742465986625577e-02 5.4590772457768244e-01  5.0866626850404151e-01 8.7100536252533944e-02 5.6231553163510506e-01  5.1068242360749361e-01 8.8335574475583142e-02 5.7338960623874646e-01  5.1475521626292320e-01 9.1176705423836144e-02 5.9528588545158334e-01  5.1365536867551387e-01 9.0256555799276980e-02 5.8954188750563696e-01  5.2168620203207794e-01 9.6988876152957038e-02 6.3104395721895412e-01  5.4102075295470642e-01 1.2001792002232474e-01 7.1865278418775780e-01  5.4402369409296703e-01 1.2413906284222605e-01 7.3081218857744146e-01  5.2632906075215691e-01 1.0217008127908353e-01 6.5322106094562349e-01  5.5433871319611283e-01 1.4277359638799464e-01 7.6753137038744923e-01  5.6897313881114675e-01 1.7252879620275213e-01 8.1017126890405045e-01  5.7498286741312410e-01 1.8594220941883924e-01 8.2476707062074051e-01  5.8308821841057834e-01 2.0622343223992570e-01 8.3974209602807581e-01  5.8419889757696120e-01 2.0912920418221900e-01 8.4151211997542064e-01  5.8486973694779631e-01 2.1093571374654169e-01 8.4250472964717804e-01  5.8465771714091452e-01 2.1036493315200014e-01 8.4219281819851555e-01  5.8441373084651349e-01 2.0970701979705794e-01 8.4183299938191503e-01  5.8366257495982521e-01 2.0770003201266188e-01 8.4068686813936921e-01  5.8270703920184841e-01 2.0517163949617909e-01 8.3917251422871930e-01  5.8147795360447374e-01 2.0195229496700298e-01 8.3714151624319721e-01  5.8004606436822292e-01 1.9825105325104431e-01 8.3465305738362150e-01  5.7845249491447459e-01 1.9419487835611651e-01 8.3173078244912202e-01  5.7674858208254509e-01 1.8993347959724186e-01 8.2842397677749580e-01  5.7494359868648615e-01 1.8550679834151965e-01 8.2471884037100407e-01  5.7307805164070680e-01 1.8102586366218654e-01 8.2067440123907653e-01  5.7118598544449484e-01 1.7658267826626142e-01 8.1634497979426890e-01  5.6925082670890959e-01 1.7214718602742982e-01 8.1168297640977261e-01  5.6544463373590181e-01 1.6373477188738356e-01 8.0185019738248609e-01  5.6370687978642997e-01 1.6003334677140529e-01 7.9707100036152512e-01  5.6200128603188726e-01 1.5649076210403115e-01 7.9220245127387945e-01  5.6032687313678342e-01 1.5309888473430122e-01 7.8725621946616087e-01  5.5869395381794462e-01 1.4987315776687754e-01 7.8227421551142662e-01  5.5711301584036799e-01 1.4682550815161671e-01 7.7730653399777228e-01  5.5558128305285115e-01 1.4394450924453342e-01 7.7235963779739902e-01  5.5412261438189403e-01 1.4126553126146912e-01 7.6752975919606636e-01  5.5277251653730364e-01 1.3884278125530522e-01 7.6295650201781640e-01  5.5157446307242508e-01 1.3673974267597655e-01 7.5881735244696180e-01  5.5061790446806036e-01 1.3509599599793101e-01 7.5545529924083477e-01  5.4956572133907855e-01 1.3337074549257538e-01 7.5164637729517858e-01  5.4840380832756630e-01 1.3154525920489574e-01 7.4732070596937461e-01  5.4667845003011173e-01 1.2889013403926450e-01 7.4077330733158053e-01  5.4084629129876594e-01 1.2028964229795294e-01 7.1773382338966540e-01  5.3804068547704786e-01 1.1637764989244950e-01 7.0612566177349190e-01  5.3540978115974791e-01 1.1287365618917429e-01 6.9488327007594908e-01  5.3290532277919245e-01 1.0969166706949932e-01 6.8386138673598695e-01  5.3051856974282108e-01 1.0680060244180374e-01 6.7307201647108306e-01  5.2824886785680536e-01 1.0417948104522001e-01 6.6255930496126580e-01  5.2609870706760775e-01 1.0181181216447112e-01 6.5237787724812779e-01  5.2406799011064698e-01 9.9677588640806170e-02 6.4257003102192656e-01  5.2216488374498871e-01 9.7769413103138775e-02 6.3320946087038443e-01  5.2038507845986648e-01 9.6066304917501052e-02 6.2431088004073654e-01  5.1874765507831222e-01 9.4568698526110315e-02 6.1600464692039669e-01  5.1727455649880993e-01 9.3281143918478887e-02 6.0843374738794342e-01  5.1497250973914022e-01 9.1411928315348168e-02 5.9638651236404294e-01  5.1367942995517857e-01 9.0437933257130898e-02 5.8950674449070528e-01  5.1232361402342275e-01 8.9460402622721980e-02 5.8222384435765595e-01  5.1095599448583118e-01 8.8517184260909820e-02 5.7480870880452306e-01  5.0960408296137383e-01 8.7625317846917225e-02 5.6741139925625117e-01  5.0828575146767985e-01 8.6791800392908347e-02 5.6013562502130243e-01  5.0699700466553366e-01 8.6008969464982973e-02 5.5296655198798972e-01  5.0465655864742309e-01 8.4636832836568324e-02 5.3983197330391064e-01  5.0396375570818086e-01 8.4237673945182820e-02 5.3591612722770188e-01  5.0351070091868499e-01 8.3974117609462648e-02 5.3334743489974845e-01  5.0321499693346994e-01 8.3799341813329722e-02 5.3166662425353606e-01  5.0304759178937930e-01 8.3694698195854428e-02 5.3071441244444395e-01  5.0297188449497798e-01 8.3640683220010378e-02 5.3028474571847228e-01  5.0295450663333330e-01 8.3620863973507958e-02 5.3018792299202244e-01  5.0292972700298011e-01 8.3611110298222727e-02 5.3004451514605577e-01  5.0280999667074100e-01 8.3576208465458462e-02 5.2934778154761264e-01  5.0256238994300906e-01 8.3501398629574564e-02 5.2790489482535663e-01  5.0216672334859358e-01 8.3383800711546205e-02 5.2559231937637907e-01  5.0159536518536019e-01 8.3220682950810310e-02 5.2223851879221017e-01  5.0082944219529357e-01 8.3015881039655098e-02 5.1771776280396309e-01  4.9984895859958584e-01 8.2777640844751449e-02 5.1189040355617621e-01  4.9860838955556219e-01 8.2509166657064315e-02 5.0446013268325718e-01  4.9696745378614093e-01 8.2194996477482948e-02 4.9455680001524099e-01  4.9135166368959138e-01 8.1334327049094546e-02 4.6031184065616765e-01  4.8940312830097693e-01 8.1128837423354666e-02 4.4830765342216472e-01  4.8785133156613447e-01 8.1025758193449454e-02 4.3867629912815370e-01  4.8662821990478417e-01 8.1000289622911767e-02 4.3102608626990219e-01  4.8571645046968176e-01 8.1023915964703389e-02 4.2528266956943284e-01  4.8494410278393063e-01 8.1117154590172616e-02 4.2035178722788824e-01  4.8438728377017393e-01 8.1240145735771985e-02 4.1674821648378529e-01  4.8358928359772446e-01 8.1443249214910543e-02 4.1156353147536828e-01  4.8075343211603383e-01 8.2304592680945796e-02 3.9304991127144268e-01  4.7960569727445551e-01 8.2727205935146694e-02 3.8551019435413214e-01  4.7863683027607729e-01 8.3132301945515019e-02 3.7911320633171020e-01  4.7778058467991674e-01 8.3535752262362914e-02 3.7342876471278152e-01  4.7700690923475364e-01 8.3943391134141052e-02 3.6826347184515784e-01  4.7629170372353946e-01 8.4359371181806794e-02 3.6346306783868498e-01  4.7560599767327405e-01 8.4794192248671393e-02 3.5883827315775790e-01  4.7422496012454218e-01 8.5768042593901320e-02 3.4946658237528022e-01  4.7380326603113809e-01 8.6090777645681141e-02 3.4659087477936057e-01  4.7349709225154668e-01 8.6334698890513831e-02 3.4449747712601625e-01  4.7328316128628656e-01 8.6511070819404248e-02 3.4303120307210933e-01  4.7308740831586632e-01 8.6681510996611214e-02 3.4168369676400923e-01  4.7296409877935164e-01 8.6795685900505723e-02 3.4083045142795210e-01  4.7282520272515804e-01 8.6927667067871653e-02 3.3986731839214041e-01  4.7268003766522659e-01 8.7068663315777103e-02 3.3885897010208677e-01  4.7253802655628335e-01 8.7209395387698008e-02 3.3787097581602304e-01  4.7240182659858698e-01 8.7346718665963358e-02 3.3692215718382446e-01  4.7227429055143666e-01 8.7477227040985386e-02 3.3603270295556981e-01  4.7215880096089502e-01 8.7596996724358625e-02 3.3522645915137189e-01  4.7205734554211598e-01 8.7703403377762321e-02 3.3451761118039636e-01  4.7189860543044126e-01 8.7872192781152519e-02 3.3340750229038119e-01  4.7182317844504479e-01 8.7953256516776143e-02 3.3287973040158919e-01  4.7175622769166636e-01 8.8025423175297643e-02 3.3241131124496975e-01  4.7169877410167799e-01 8.8087312386679786e-02 3.3200955420944506e-01  4.7165193712648340e-01 8.8137429592605551e-02 3.3168245170752664e-01  4.7161684323537573e-01 8.8174314873334339e-02 3.3143802377199338e-01  4.7159351625929952e-01 8.8197766431422020e-02 3.3127652834741050e-01  4.7158232557366347e-01 8.8207255055775341e-02 3.3120061826699848e-01  4.7158388221330361e-01 8.8202019256013051e-02 3.3121462442403954e-01  4.7159779426622039e-01 8.8182503712577548e-02 3.3131578516259835e-01  4.7162410323195758e-01 8.8148706888264511e-02 3.3150436255716526e-01  4.7166315559464234e-01 8.8100329583679207e-02 3.3178273780070661e-01  4.7171413719855354e-01 8.8038459521629087e-02 3.3214508935740777e-01  4.7177880551638274e-01 8.7961289813208318e-02 3.3260367645196703e-01  4.7185552658042706e-01 8.7870937447220396e-02 3.3314685619327755e-01  4.7204040399863550e-01 8.7657231882442510e-02 3.3445299887890262e-01  4.7214439248327739e-01 8.7539163553894350e-02 3.3518626682993907e-01  4.7225768211111263e-01 8.7412044913109388e-02 3.3598415920179031e-01  4.7238097272817142e-01 8.7275476030094487e-02 3.3685138284299015e-01  4.7251454236126678e-01 8.7129325241735278e-02 3.3778980253651819e-01  4.7266018804396498e-01 8.6971887516754900e-02 3.3881191808187250e-01  4.7282407805996468e-01 8.6796866823045507e-02 3.3996085501711110e-01  4.7322714429790036e-01 8.6373653585100227e-02 3.4278259408780798e-01  4.7336698120193310e-01 8.6229221663566877e-02 3.4376021501254678e-01  4.7348201942043688e-01 8.6111677239649534e-02 3.4456367855396214e-01  4.7357994050428015e-01 8.6012725276901958e-02 3.4524685666580329e-01  4.7366377643160373e-01 8.5928946436114345e-02 3.4583110809824469e-01  4.7373441023364488e-01 8.5859141903692801e-02 3.4632278457117577e-01  4.7379223840567763e-01 8.5802623909807293e-02 3.4672484030450340e-01  4.7383714095152174e-01 8.5759233199111648e-02 3.4703663323125999e-01  4.7388734193764387e-01 8.5711733825648229e-02 3.4738437663964683e-01  4.7391491725401641e-01 8.5686320538363281e-02 3.4757479920857831e-01  4.7394200585482549e-01 8.5661880800981166e-02 3.4776135242504258e-01  4.7397480739813413e-01 8.5635176320430481e-02 3.4798417416415789e-01  4.7396779619215479e-01 8.5644087522060944e-02 3.4793309330900596e-01  4.7394864501335510e-01 8.5664635025063968e-02 3.4779768825170265e-01  4.7391860701021854e-01 8.5695750625061989e-02 3.4758655195532911e-01  4.7387682882053900e-01 8.5738335264884308e-02 3.4729369445285579e-01  4.7382429001579895e-01 8.5791622899864847e-02 3.4692580137365953e-01  4.7375678342873495e-01 8.5859795567962638e-02 3.4645354074795076e-01  4.7353861627653521e-01 8.6079392979699743e-02 3.4492888112600900e-01  4.7344186752738004e-01 8.6176942260512451e-02 3.4425301435297767e-01  4.7335372553434252e-01 8.6266181742495215e-02 3.4363717532249410e-01  4.7327210241476664e-01 8.6349234965935689e-02 3.4306671425027829e-01  4.7319660352693033e-01 8.6426472977063754e-02 3.4253885914924231e-01  4.7312727564841184e-01 8.6497784993046764e-02 3.4205395530303040e-01  4.7306432529012032e-01 8.6562878577769981e-02 3.4161348283295762e-01  4.7300799286924294e-01 8.6621414191154086e-02 3.4121916949573317e-01  4.7295850930916278e-01 8.6673058285274773e-02 3.4087267903225199e-01  4.7291610755123148e-01 8.6717477566457493e-02 3.4057569112338154e-01  4.7288101192902982e-01 8.6754357096689022e-02 3.4032981835313719e-01  4.7285343422381410e-01 8.6783403092400749e-02 3.4013658353529463e-01  4.7283357059909970e-01 8.6804354893116484e-02 3.3999738898299070e-01  4.7282160500489495e-01 8.6816986696316642e-02 3.3991353676742125e-01  4.7282161758384439e-01 8.6817114596752218e-02 3.3991348886587552e-01  4.7283404686707753e-01 8.6804487549781123e-02 3.4000011581758827e-01  4.7285449857795253e-01 8.6783784914087447e-02 3.4014260040189875e-01  4.7288288357488623e-01 8.6755168597113866e-02 3.4034027553479690e-01  4.7291876053264575e-01 8.6719209717250056e-02 3.4058997401729796e-01  4.7299788193290954e-01 8.6640803934680988e-02 3.4114003388783026e-01  4.7295658579305627e-01 8.6682068209663649e-02 3.4085250804716150e-01  4.7293280454718900e-01 8.6705993935338677e-02 3.4068679097923799e-01  4.7291727721878568e-01 8.6721664129642675e-02 3.4057855057920167e-01  4.7290789065989930e-01 8.6731152712164264e-02 3.4051310470447038e-01  4.7290878656703544e-01 8.6730246492794108e-02 3.4051935167267822e-01  4.7292124820361237e-01 8.6717648465125571e-02 3.4060623931605621e-01  4.7294062738569315e-01 8.6698060277169184e-02 3.4074136442099684e-01  4.7319283320441308e-01 8.6448679228484288e-02 3.4249541618161683e-01  4.7329363247150175e-01 8.6350866509441362e-02 3.4319524522372641e-01  4.7339681301413827e-01 8.6251895033469375e-02 3.4391091918463124e-01  4.7350649554335300e-01 8.6147992416466590e-02 3.4467090915532778e-01  4.7362492081181612e-01 8.6037324369101123e-02 3.4549056406169565e-01  4.7375381794490795e-01 8.5918592750465886e-02 3.4638166080690552e-01  4.7389547672840804e-01 8.5790071788480443e-02 3.4735980098293534e-01  4.7405347868659092e-01 8.5648957747356286e-02 3.4844946521742054e-01  4.7423608659200422e-01 8.5488451140598554e-02 3.4970734788505442e-01  4.7472117290838306e-01 8.5073174634194101e-02 3.5304263938064234e-01  4.7491987544576675e-01 8.4907643314591941e-02 3.5440628756775089e-01  4.7510498819946484e-01 8.4756109226655968e-02 3.5567512057795397e-01  4.7528241637522106e-01 8.4613516639591199e-02 3.5688968415470818e-01  4.7545550773693973e-01 8.4476916838034335e-02 3.5807303140346936e-01  4.7562462087614282e-01 8.4345871739109526e-02 3.5922770114430708e-01  4.7578977600370859e-01 8.4220152120676697e-02 3.6035396187348273e-01  4.7595033404156600e-01 8.4100024402382664e-02 3.6144759078220973e-01  4.7610517151303927e-01 8.3986100491848223e-02 3.6250107508093976e-01  4.7625216246900914e-01 8.3879714775878564e-02 3.6350008751982971e-01  4.7638858972664949e-01 8.3782578221065024e-02 3.6442630571359580e-01  4.7650928175594598e-01 8.3698051423688219e-02 3.6524479472250682e-01  4.7668714405588331e-01 8.3577025706632918e-02 3.6644857899890454e-01  4.7681832931351054e-01 8.3490191029542513e-02 3.6733478692156640e-01  4.7697629294306609e-01 8.3386979109511317e-02 3.6840106006138784e-01  4.7716655411533615e-01 8.3263909542702158e-02 3.6968470724864816e-01  4.7755634682093706e-01 8.3011410153236390e-02 3.7231552487271552e-01  4.7758658214582311e-01 8.2990653515494450e-02 3.7252047217328454e-01  4.7759505672095542e-01 8.2984388154957664e-02 3.7257823554986258e-01  4.7759522004554017e-01 8.2984265450742153e-02 3.7257935016851546e-01  4.7759255843127263e-01 8.2986733198159107e-02 3.7256085461661814e-01  4.7759783898199576e-01 8.2984566196030729e-02 3.7259560875357040e-01  4.7762652362942237e-01 8.2967811699935209e-02 3.7278794974942453e-01  4.7775583527948928e-01 8.2888832096579323e-02 3.7365748516173874e-01  4.7780585652696272e-01 8.2857726928095413e-02 3.7399420263749350e-01  4.7783663055125408e-01 8.2838176269472166e-02 3.7420161212575126e-01  4.7785311755059073e-01 8.2827492638392883e-02 3.7431285260180852e-01  4.7785831348940749e-01 8.2824118402330935e-02 3.7434791187964833e-01  4.7785545684807029e-01 8.2826087101510251e-02 3.7432856485067673e-01  4.7784750460731068e-01 8.2831611962051022e-02 3.7427467322454627e-01  4.7784062412739320e-01 8.2837281568218887e-02 3.7422746293155879e-01  4.7798226541689220e-01 8.2759544714320066e-02 3.7517423415008377e-01  4.7809109642191661e-01 8.2697140907133843e-02 3.7590348891872283e-01  4.7818623105977970e-01 8.2642786680022909e-02 3.7654087579965506e-01  4.7826713466097287e-01 8.2596863960867434e-02 3.7708274065086445e-01  4.7832969644495094e-01 8.2561626181625422e-02 3.7750158531220668e-01  4.7839580485713018e-01 8.2525261502465391e-02 3.7794357710165272e-01  4.7844870689070901e-01 8.2497032612301971e-02 3.7829666621670155e-01  4.7851575325