<?xml version="1.0"?>
<VTKFile type="UnstructuredGrid"  version="0.1"  >
<UnstructuredGrid>
<Piece  NumberOfPoints="7288" NumberOfCells="14083">
<Points>
<DataArray  type="Float64"  NumberOfComponents="3"  format="ascii">239.8 188 0  250.2 180 0  258.2 172.4 0  257 169.4 0  259.9 157.4 0  258.7 150.3 0  261 143.5 0  251.7 144.4 0  250 138.7 0  247 138.1 0  245.2 130.8 0  247.3 126.4 0  242.7 118.6 0  231.2 107.7 0  226 102.4 0  226.5 93.90000000000001 0  224.5 91.19999999999999 0  224.5 84.09999999999999 0  234.5 73.80000000000001 0  228.4 68.90000000000001 0  230 70 0  233.4 68 0  222.7 61.5 0  220.6 45.5 0  223.4 49.40000000000001 0  224 47 0  221.8 43.09999999999999 0  221 38.40000000000001 0  219.5 38.5 0  219.4 41.69999999999999 0  217.1 36.90000000000001 0  209.7 36 0  209.5 31.69999999999999 0  205.1 29.90000000000001 0  201.5 30.40000000000001 0  199.2 38.69999999999999 0  201.8 41.40000000000001 0  194.8 53.80000000000001 0  196.1 57.69999999999999 0  193 59 0  191.4 66.09999999999999 0  193.5 66.5 0  194.1 64.40000000000001 0  195.6 64.69999999999999 0  195.4 72.40000000000001 0  199.5 77.30000000000001 0  197.7 86.90000000000001 0  200.6 87.5 0  201.5 91 0  198 94.80000000000001 0  198.6 100 0  197.3 105.4 0  198 109.5 0  197 112.7 0  198.3 116.1 0  201.3 122 0  207.2 121 0  208.1 126.7 0  205.6 127.9 0  209.1 134.9 0  210.9 144.4 0  210.1 147.9 0  213 148.4 0  215.4 149.3 0  215.1 152.8 0  219.9 159.7 0  220.3 163.2 0  218.7 164.9 0  219.9 166.7 0  221.9 169.7 0  220 170.3 0  224.9 174.7 0  229.8 177.4 0  229.7 181 0  228 172.9 0  239 178 0  240.4 180 0  239 181.5 0  241.2 185.9 0  242.95 187.99 0  240.5875 187.9975 0  241.375 187.995 0  242.1625 187.9925 0  243.6090909090879 187.2636363636397 0  244.2681818181765 186.5372727272785 0  244.9272727272692 185.810909090913 0  245.5863636363531 185.0845454545571 0  246.245454545445 184.3581818181923 0  246.9045454545351 183.6318181818295 0  247.5636363636303 182.9054545454612 0  248.2227272727197 182.1790909090992 0  248.8818181818179 181.4527272727275 0  249.5409090909066 180.7263636363664 0  250.8666666666961 179.3666666666387 0  251.5333333334033 178.7333333332668 0  252.2000000000994 178.0999999999055 0  252.8666666668011 177.466666666539 0  253.5333333335083 176.8333333331671 0  254.2000000002044 176.1999999998058 0  254.8666666669005 175.5666666664445 0  255.5333333336077 174.9333333330727 0  256.2000000002685 174.2999999997449 0  256.8666666668457 173.6666666664966 0  257.5333333334283 173.033333333243 0  257.9000000000077 171.6500000000191 0  257.6000000000015 170.9000000000038 0  257.2999999999954 170.1499999999885 0  257.2230769230778 168.4769230769195 0  257.4461538461543 167.5538461538442 0  257.6692307692309 166.6307692307688 0  257.8923076923074 165.7076923076935 0  258.115384615384 164.7846153846181 0  258.3384615384605 163.8615384615427 0  258.5615384615395 162.9384615384572 0  258.784615384616 162.0153846153819 0  259.0076923076926 161.0923076923065 0  259.2307692307691 160.1692307692311 0  259.4538461538457 159.2461538461558 0  259.6769230769222 158.3230769230804 0  259.750000000001 156.512500000006 0  259.6000000000014 155.6250000000082 0  259.4500000000029 154.7375000000176 0  259.3000000000018 153.8500000000108 0  259.1500000000007 152.962500000004 0  259.0000000000004 152.0750000000026 0  258.849999999999 151.187499999994 0  258.9875000000052 149.4499999999846 0  259.275000000002 148.5999999999941 0  259.5624999999954 147.7500000000135 0  259.849999999995 146.900000000015 0  260.1374999999945 146.0500000000164 0  260.4249999999913 145.2000000000259 0  260.7124999999948 144.3500000000154 0  260.0700000000398 143.5899999999961 0  259.1400000000573 143.6799999999944 0  258.2100000000351 143.7699999999966 0  257.2800000000262 143.8599999999975 0  256.350000000011 143.9499999999989 0  255.4199999999881 144.0400000000011 0  254.4899999999726 144.1300000000026 0  253.5599999999944 144.2200000000005 0  252.6300000000009 144.3099999999999 0  251.4166666666658 143.4499999999971 0  251.1333333333388 142.5000000000182 0  250.8500000000015 141.5500000000051 0  250.5666666666612 140.5999999999818 0  250.2833333333342 139.6500000000029 0  249.2500000000005 138.5500000000001 0  248.5000000000011 138.4000000000002 0  247.7499999999995 138.2499999999999 0  246.7750000000005 137.1875000000023 0  246.5500000000021 136.2750000000085 0  246.3250000000036 135.3625000000147 0  246.1000000000042 134.450000000017 0  245.8750000000022 133.5375000000088 0  245.650000000003 132.6250000000124 0  245.4250000000046 131.7125000000187 0  245.619999999996 129.9200000000084 0  246.0399999999992 129.0400000000017 0  246.4599999999987 128.1600000000028 0  246.8800000000001 127.2799999999997 0  246.8399999999988 125.6199999999979 0  246.3799999999984 124.8399999999973 0  245.9199999999991 124.0599999999985 0  245.4600000000036 123.2800000000062 0  245.0000000000049 122.5000000000082 0  244.5400000000036 121.7200000000062 0  244.0800000000033 120.9400000000056 0  243.6200000000016 120.1600000000027 0  243.1600000000012 119.3800000000021 0  241.9812499999996 117.9187499999997 0  241.2625000000007 117.2375000000007 0  240.5437500000017 116.5562500000017 0  239.8250000000041 115.875000000004 0  239.1062500000066 115.1937500000063 0  238.3875000000076 114.5125000000072 0  237.6687500000087 113.8312500000082 0  236.9500000000083 113.1500000000079 0  236.231250000008 112.4687500000076 0  235.512500000009 111.7875000000085 0  234.7937500000045 111.1062500000043 0  234.0750000000042 110.4250000000039 0  233.3562500000066 109.7437500000062 0  232.6375000000021 109.062500000002 0  231.9187500000031 108.381250000003 0  230.5500000000004 107.0375000000004 0  229.9000000000021 106.3750000000021 0  229.2500000000038 105.7125000000039 0  228.6000000000041 105.0500000000042 0  227.9500000000018 104.3875000000018 0  227.2999999999952 103.7249999999951 0  226.6500000000024 103.0625000000024 0  226.0555555555555 101.4555555555556 0  226.1111111111111 100.5111111111111 0  226.1666666666667 99.56666666666668 0  226.2222222222222 98.62222222222223 0  226.2777777777778 97.67777777777778 0  226.3333333333333 96.73333333333335 0  226.3888888888889 95.78888888888889 0  226.4444444444445 94.84444444444446 0  226 93.22499999999999 0  225.5000000000026 92.55000000000358 0  225.0000000000026 91.87500000000358 0  224.5 90.31250000000068 0  224.5 89.4250000000097 0  224.5 88.53750000001317 0  224.5 87.65000000001388 0  224.5 86.76250000001457 0  224.5 85.87500000001248 0  224.5 84.9874999999993 0  225.1666666666659 83.41333333333409 0  225.8333333333319 82.72666666666818 0  226.4999999999978 82.04000000000228 0  227.1666666666649 81.35333333333514 0  227.8333333333301 80.66666666667 0  228.4999999999942 79.980000000006 0  229.1666666666601 79.2933333333401 0  229.8333333333316 78.60666666666847 0  230.4999999999975 77.92000000000257 0  231.1666666666644 77.23333333333572 0  231.8333333333295 76.54666666667057 0  232.4999999999972 75.86000000000287 0  233.1666666666681 75.17333333333181 0  233.8333333333368 74.48666666666306 0  233.7499999999995 73.16666666666629 0  233.0000000000018 72.53333333333488 0  232.2500000000014 71.90000000000116 0  231.5000000000009 71.26666666666743 0  230.7500000000005 70.63333333333372 0  229.233333333333 68.75000000000006 0  230.0666666666665 68.60000000000004 0  230.8999999999995 68.45000000000009 0  231.7333333333325 68.30000000000015 0  232.566666666667 68.14999999999995 0  232.5499999999897 68.50000000000607 0  231.7 69 0  230.8500000000103 69.49999999999393 0  227.8300000000008 68.16000000000106 0  227.2600000000064 67.42000000000837 0  226.6900000000077 66.68000000001001 0  226.1200000000024 65.94000000000314 0  225.5500000000108 65.20000000001409 0  224.9800000000098 64.46000000001268 0  224.4100000000007 63.72000000000098 0  223.8399999999971 62.97999999999621 0  223.2699999999993 62.23999999999915 0  222.753846153846 60.56923076923239 0  222.8076923076921 59.63846153846478 0  222.8615384615381 58.70769230769827 0  222.9153846153842 57.77692307693071 0  222.9692307692302 56.84615384616315 0  223.0230769230761 55.91538461539836 0  223.0769230769224 54.98461538462665 0  223.1307692307688 54.05384615385345 0  223.184615384615 53.12307692308312 0  223.2384615384611 52.19230769231556 0  223.2923076923071 51.26153846154906 0  223.3461538461533 50.33076923077847 0  222.8400000000024 48.62000000000327 0  222.2800000000047 47.84000000000661 0  221.7200000000005 47.06000000000071 0  221.1600000000003 46.28000000000039 0  221.4500000000116 45.87500000000512 0  222.3 46.25 0  223.1499999999884 46.62499999999488 0  223.5600000000055 46.22000000000981 0  223.1199999999987 45.43999999999767 0  222.6800000000061 44.66000000001075 0  222.2399999999969 43.8799999999944 0  221.6400000000004 42.16000000000253 0  221.4800000000009 41.22000000000548 0  221.3200000000014 40.28000000000801 0  221.1600000000009 39.34000000000556 0  220.25 38.45 0  219.4749999999999 39.30000000000165 0  219.45 40.09999999999999 0  219.425 40.90000000000112 0  219.0166666666641 40.89999999999463 0  218.6333333333375 40.10000000000875 0  218.2500000000016 39.30000000000339 0  217.8666666666635 38.49999999999351 0  217.483333333337 37.70000000000762 0  216.1750000000165 36.78750000000201 0  215.2500000000275 36.67500000000335 0  214.3250000000385 36.56250000000469 0  213.4000000000277 36.45000000000337 0  212.4750000000059 36.33750000000072 0  211.5499999999838 36.22499999999803 0  210.6249999999835 36.11249999999799 0  209.6600000000001 35.14000000000318 0  209.6200000000001 34.28000000000268 0  209.5800000000001 33.42000000000284 0  209.5399999999998 32.55999999999681 0  208.6200000000117 31.34000000000476 0  207.7400000000138 30.98000000000564 0  206.8600000000162 30.62000000000662 0  205.9800000000174 30.26000000000711 0  204.2000000000054 30.02499999999925 0  203.2999999999946 30.15000000000076 0  202.3999999999945 30.27500000000076 0  201.2444444444438 31.32222222222468 0  200.9888888888895 32.24444444
[...]
<PointData  Vectors="f_12"> 
<DataArray  type="Float64"  Name="f_12"  NumberOfComponents="3" format="ascii">5.7585895809592635e-01 3.8962556467053255e-01 6.5075222587418347e-01  5.7558062100542473e-01 3.8633457787121150e-01 6.5231687808216576e-01  5.7519189736526932e-01 3.8196517690610576e-01 6.5432789100309141e-01  5.7496987714954229e-01 3.7967792988297894e-01 6.5532842540086811e-01  5.7313153868031474e-01 3.6264633498635213e-01 6.6208844995630811e-01  5.7143600204003187e-01 3.4957513418385228e-01 6.6627816023354636e-01  5.7095106260804174e-01 3.4574635888067973e-01 6.6745974661039820e-01  5.6653294203267490e-01 3.2102600649949820e-01 6.7138872290786022e-01  5.5947786549447265e-01 2.8662764653067241e-01 6.7200003293377875e-01  5.5517762303378615e-01 2.6957389115482161e-01 6.6865404657263849e-01  5.3857035780792228e-01 2.1527600372111824e-01 6.4146747113795488e-01  5.3299112049390163e-01 2.0074363809653581e-01 6.2775540338702296e-01  5.2478712137537475e-01 1.8454942220746606e-01 6.0305956696220608e-01  5.0695313608321257e-01 1.6378393220061982e-01 5.3434722365478249e-01  4.9966562551542199e-01 1.6172234844508696e-01 4.9997539052078893e-01  4.9557357681938224e-01 1.6289144427224478e-01 4.7875211312282473e-01  4.9480733687638906e-01 1.6351308021844016e-01 4.7451279944998959e-01  4.9341745878119525e-01 1.6503974538065713e-01 4.6658693928676015e-01  4.9282445025553406e-01 1.6590688601916570e-01 4.6308281262081497e-01  4.9282318585417673e-01 1.6592124699981589e-01 4.6307080330188943e-01  4.9281929308155703e-01 1.6592276172086942e-01 4.6304917636325238e-01  4.9280568497325805e-01 1.6594443296839223e-01 4.6296768527190180e-01  4.9285490022683892e-01 1.6591934615992568e-01 4.6324323515584187e-01  4.9292715325136865e-01 1.6584084588971007e-01 4.6366260699202716e-01  4.9290434238321268e-01 1.6586964422501765e-01 4.6352884189287241e-01  4.9292677446095123e-01 1.6583986764071199e-01 4.6366094345156922e-01  4.9293180633644351e-01 1.6583435336321806e-01 4.6369012231320744e-01  4.9293289273048541e-01 1.6583183640474192e-01 4.6369692577206306e-01  4.9293294252267245e-01 1.6583178912798199e-01 4.6369721171894185e-01  4.9293976823027164e-01 1.6582547413248416e-01 4.6373634622529963e-01  4.9296879177666197e-01 1.6579409209214269e-01 4.6390444502317540e-01  4.9301712394596037e-01 1.6574388840070109e-01 4.6418345237641323e-01  4.9303851931503606e-01 1.6572110050047106e-01 4.6430712776236710e-01  4.9304454362474054e-01 1.6571481224590059e-01 4.6434189606447285e-01  4.9304607766491093e-01 1.6571330283801719e-01 4.6435071529133010e-01  4.9303784788845600e-01 1.6572328251289425e-01 4.6430270758606301e-01  4.9302752102063274e-01 1.6573624261982253e-01 4.6424229227159264e-01  4.9303124768252071e-01 1.6574532640192546e-01 4.6425893588588385e-01  4.9302816004371874e-01 1.6574927342149981e-01 4.6424077524140772e-01  4.9303011433951027e-01 1.6574755907740657e-01 4.6425189697033659e-01  4.9301825439487551e-01 1.6574612668235797e-01 4.6418832610945265e-01  4.9301772113578191e-01 1.6574623580655859e-01 4.6418541409498898e-01  4.9302436583484738e-01 1.6574946688087769e-01 4.6422015215656742e-01  4.9302029699099581e-01 1.6574995444143148e-01 4.6419800397813460e-01  4.9301397958461390e-01 1.6572669104089768e-01 4.6417230261167114e-01  4.9306461365411264e-01 1.6557262781151563e-01 4.6450113690451272e-01  4.9330110659873516e-01 1.6512795889535398e-01 4.6593447546086703e-01  4.9342810184880148e-01 1.6494045555329670e-01 4.6668260130923289e-01  4.9393047103791587e-01 1.6423574660741347e-01 4.6961924196977822e-01  4.9443354314714749e-01 1.6358582766780369e-01 4.7252471992587408e-01  4.9506941915899683e-01 1.6294974687910879e-01 4.7609955374098023e-01  4.9600428005086222e-01 1.6218217180885058e-01 4.8125187057032365e-01  4.9688360015392791e-01 1.6166842159310996e-01 4.8597245440117420e-01  4.9752579070764597e-01 1.6137010464576382e-01 4.8936892977423568e-01  4.9823342129891590e-01 1.6118877840999410e-01 4.9302753420140893e-01  4.9967289728954012e-01 1.6111344950788525e-01 5.0029006093422623e-01  5.0390588042324469e-01 1.6280704509072297e-01 5.2023975055025473e-01  5.1440607667435534e-01 1.7087237832191307e-01 5.6528883703039545e-01  5.1637859366304506e-01 1.7285742629636636e-01 5.7312501375043123e-01  5.2493719695368968e-01 1.8623920941391328e-01 6.0307785536246172e-01  5.4119200598712369e-01 2.2199094558879484e-01 6.4748035530890635e-01  5.4358444942292217e-01 2.2837981924811851e-01 6.5258377725626671e-01  5.4503754647811842e-01 2.3304338374104888e-01 6.5519907495323815e-01  5.4981794468990230e-01 2.4908275492991558e-01 6.6269244439185171e-01  5.5560907076179677e-01 2.7001177996436893e-01 6.6966324022316570e-01  5.6552213757224978e-01 3.1558252094837325e-01 6.7194042058470560e-01  5.6946830896423961e-01 3.3782699640871511e-01 6.6871998899561180e-01  5.7046978456644992e-01 3.4390246605670943e-01 6.6745800676610123e-01  5.7100462588295431e-01 3.4739797072677170e-01 6.6658800502625581e-01  5.7189817322070868e-01 3.5355505550165861e-01 6.6489340027960653e-01  5.7171651054098582e-01 3.5217341649331863e-01 6.6532278636198072e-01  5.7299013071188398e-01 3.6182799848078290e-01 6.6226068906865598e-01  5.7456015413339001e-01 3.7573801413141339e-01 6.5695863224861717e-01  5.7473728605493291e-01 3.7737554970838083e-01 6.5629282952893619e-01  5.7342317520756170e-01 3.6564059324862053e-01 6.6084900438147920e-01  5.7514980460131915e-01 3.8177030253351135e-01 6.5435894510588333e-01  5.7555294994878281e-01 3.8614298084136056e-01 6.5238218815067706e-01  5.7568653819092774e-01 3.8763459916714210e-01 6.5169244306733320e-01  5.7583042842988386e-01 3.8928964531190985e-01 6.5091241756642049e-01  5.7584808285439959e-01 3.8949589955350072e-01 6.5081437473649451e-01  5.7585754501790787e-01 3.8960879856544239e-01 6.5076024833722423e-01  5.7585451725445502e-01 3.8957277067485580e-01 6.5077750524542322e-01  5.7585109364872555e-01 3.8953188451490534e-01 6.5079711389651174e-01  5.7584036699309771e-01 3.8940406362318403e-01 6.5085834571231682e-01  5.7582651396442408e-01 3.8923926354659744e-01 6.5093720842323832e-01  5.7580854546098725e-01 3.8902553818692409e-01 6.5103942031136675e-01  5.7578736916169992e-01 3.8877376194142443e-01 6.5115972361895291e-01  5.7576345441331245e-01 3.8848965898647142e-01 6.5129531849216860e-01  5.7573747919708784e-01 3.8818131104928638e-01 6.5144230248367863e-01  5.7570932072859526e-01 3.8784776793210674e-01 6.5160100536970056e-01  5.7567950778578147e-01 3.8749538809971740e-01 6.5176835563701196e-01  5.7564845655344499e-01 3.8712926126029595e-01 6.5194187577480733e-01  5.7561555883535542e-01 3.8674301587294041e-01 6.5212441352663320e-01  5.7554739552383238e-01 3.8594759529784639e-01 6.5249874213491399e-01  5.7551453788304907e-01 3.8556668550325557e-01 6.5267719794638990e-01  5.7548084777762210e-01 3.8517864519432232e-01 6.5285829601652312e-01  5.7544628040107071e-01 3.8478316666605888e-01 6.5304212957951679e-01  5.7541103215196987e-01 3.8438268917520840e-01 6.5322751226824405e-01  5.7537536375869602e-01 3.8398029022780927e-01 6.5341299526184382e-01  5.7533910832060065e-01 3.8357462911753565e-01 6.5359909258515891e-01  5.7530289468368712e-01 3.8317281817277521e-01 6.5378253675617148e-01  5.7526772675122817e-01 3.8278594416122735e-01 6.5395829686679530e-01  5.7523496184438150e-01 3.8242872887460044e-01 6.5411977410703770e-01  5.7520748029623325e-01 3.8213187480929633e-01 6.5425329265902454e-01  5.7517350420059810e-01 3.8177325898701508e-01 6.5441270124177531e-01  5.7513234674204694e-01 3.8134622865619683e-01 6.5460067201747973e-01  5.7506892358440920e-01 3.8069225875998680e-01 6.5488706312393696e-01  5.7483816286991607e-01 3.7834030097977261e-01 6.5590566556676877e-01  5.7471565144845549e-01 3.7711104674884327e-01 6.5643024862573229e-01  5.7459080794567763e-01 3.7587533983002031e-01 6.5695115719261266e-01  5.7446117263464491e-01 3.7461062942022677e-01 6.5747740802627441e-01  5.7432609555483694e-01 3.7331259052288973e-01 6.5801014487906018e-01  5.7418553049225829e-01 3.7198270441155062e-01 6.5854809569030492e-01  5.7403980399829324e-01 3.7062585376788892e-01 6.5908864179221771e-01  5.7388942193626435e-01 3.6924816428461138e-01 6.5962885373396540e-01  5.7373541077097701e-01 3.6786060059007564e-01 6.6016387905009810e-01  5.7357802691569182e-01 3.6646731422863327e-01 6.6069162786559155e-01  5.7342048022722014e-01 3.6509617304857989e-01 6.6120177327798724e-01  5.7326631823523155e-01 3.6377812303034701e-01 6.6168303027294539e-01  5.7299122546942083e-01 3.6149584391214962e-01 6.6249050549405297e-01  5.7281605234310140e-01 3.6008370872784412e-01 6.6297406773863021e-01  5.7261871820590238e-01 3.5851881801010910e-01 6.6349836770649206e-01  5.7240475604400842e-01 3.5685074713143461e-01 6.6404398479016513e-01  5.7217799532365321e-01 3.5511161730127799e-01 6.6459867934391303e-01  5.7194215088122291e-01 3.5332972107689464e-01 6.6515273865710767e-01  5.7169753359588538e-01 3.5150634223303079e-01 6.6570552714211750e-01  5.7123474828093701e-01 3.4806973721451856e-01 6.6672498896666244e-01  5.7109793450648505e-01 3.4704072372948525e-01 6.6702890499858880e-01  5.7101365442400664e-01 3.4638532798561400e-01 6.6722702679407453e-01  5.7096345362650336e-01 3.4597494883285757e-01 6.6735584752683852e-01  5.7094178099689874e-01 3.4576955001306858e-01 6.6742732684886130e-01  5.7093913104484739e-01 3.4570605338929866e-01 6.6745780796733578e-01  5.7094604544781158e-01 3.4572285893624066e-01 6.6746264327837468e-01  5.7093764980188033e-01 3.4567010768380507e-01 6.6747507851469456e-01  5.7088504569211207e-01 3.4536459343425946e-01 6.6753871933801479e-01  5.7077973596866682e-01 3.4474631401362316e-01 6.6766918607360648e-01  5.7061121127014625e-01 3.4375528352214479e-01 6.6787687640454285e-01  5.7036384512933758e-01 3.4230436509851558e-01 6.6817483019303070e-01  5.7002176846767472e-01 3.4031204221567385e-01 6.6856930585534635e-01  5.6956269990561570e-01 3.3767062570925760e-01 6.6906219957091284e-01  5.6894652867192919e-01 3.3418339194568164e-01 6.6965759373219935e-01  5.6807237530937149e-01 3.2934009825834570e-01 6.7037940460497203e-01  5.6465158696328088e-01 3.1120525296857254e-01 6.7223037109732620e-01  5.6326280213105850e-01 3.0422011166319635e-01 6.7255575170859616e-01  5.6202225967109920e-01 2.9821327252373625e-01 6.7260249055617338e-01  5.6093076112254459e-01 2.9311442826310263e-01 6.7246032185508564e-01  5.6003050497077078e-01 2.8904233474180341e-01 6.7221924825014046e-01  5.5911672735485418e-01 2.8512796436654669e-01 6.7179507228624014e-01  5.5833527576283415e-01 2.8194380749694592e-01 6.7129063891481355e-01  5.5713983840177794e-01 2.7718776377441429e-01 6.7038617955368252e-01  5.5244308269779652e-01 2.5933228826954247e-01 6.6577382582889577e-01  5.5029727224629799e-01 2.5163515672106274e-01 6.6308339240824454e-01  5.4831918836616056e-01 2.4483774271987921e-01 6.6023626640169653e-01  5.4641656456166432e-01 2.3856998054283524e-01 6.5717344342109230e-01  5.4455077482322900e-01 2.3267658812980335e-01 6.5386968441448923e-01  5.4268916427035030e-01 2.2703169092892680e-01 6.5029195104557613e-01  5.4077431730399839e-01 2.2145248159320546e-01 6.4633411343043123e-01  5.3659226943588423e-01 2.0991519924438376e-01 6.3685529158793663e-01  5.3522922973397768e-01 2.0633471614276269e-01 6.3352858369363896e-01  5.3419127211794049e-01 2.0368792179161319e-01 6.3090193735410594e-01  5.3342532009646848e-01 2.0178897956283354e-01 6.2890946918457802e-01  5.3260753147120132e-01 1.9987203970294831e-01 6.2670412503338535e-01  5.3197921834831430e-01 1.9848622500962826e-01 6.2495312177500206e-01  5.3121337661572476e-01 1.9684216072237973e-01 6.2278103005900221e-01  5.3035198817837093e-01 1.9504223181208635e-01 6.2029155192084962e-01  5.2943656412306050e-01 1.9318393158163438e-01 6.1759313237232383e-01  5.2848534341398379e-01 1.9130879470761661e-01 6.1473207365069849e-01  5.2751723766777703e-01 1.8945717900425735e-01 6.1176096118270662e-01  5.2655348884226150e-01 1.8767114239013710e-01 6.0874425244065256e-01  5.2562107378602563e-01 1.8599762819081464e-01 6.0576936456946007e-01  5.2385712479908220e-01 1.8299963416714055e-01 5.9997463238471260e-01  5.2280055612931475e-01 1.8130721162753796e-01 5.9639966600129390e-01  5.2168977453932996e-01 1.7959788034768462e-01 5.9256735082544498e-01  5.2054189618394220e-01 1.7790618513843381e-01 5.8852537413698935e-01  5.1937254725901616e-01 1.7625806662023175e-01 5.8432488768856850e-01  5.1819283263848781e-01 1.7467339144690286e-01 5.8000127026355941e-01  5.1700904342752618e-01 1.7316265088565858e-01 5.7557530331922657e-01  5.1582815364437695e-01 1.7173577540564974e-01 5.7107267570386477e-01  5.1465695609219098e-01 1.7040079338232392e-01 5.6652060155866857e-01  5.1349823399717387e-01 1.6916099046571126e-01 5.6193071441834663e-01  5.1235576645954850e-01 1.6801870145708905e-01 5.5732104600727850e-01  5.1123359728484064e-01 1.6697598471812325e-01 5.5271154398948186e-01  5.1013077347093361e-01 1.6603119445680709e-01 5.4810032475792914e-01  5.0905397323470281e-01 1.6519033789372006e-01 5.4351696168712826e-01  5.0799664217123386e-01 1.6444334433861149e-01 5.3893952628992770e-01  5.0599956333866514e-01 1.6325311920312752e-01 5.3008317260072058e-01  5.0508395838787057e-01 1.6281181065400249e-01 5.2592592043996855e-01  5.0419537056565578e-01 1.6244857623803718e-01 5.2183254548401470e-01  5.0332826295725619e-01 1.6216375760949589e-01 5.1777624057943661e-01  5.0247651137871252e-01 1.6195014642042252e-01 5.1373338942775193e-01  5.0162351629800872e-01 1.6180459510236020e-01 5.0962471966233180e-01  5.0073179518029642e-01 1.6172720658546016e-01 5.0526423917379781e-01  4.9868644944175000e-01 1.6180258521484941e-01 4.9504872311387932e-01  4.9800551933390158e-01 1.6191324409653776e-01 4.9157786816896459e-01  4.9745643813021556e-01 1.6204537080247425e-01 4.8874501349911798e-01  4.9699365224440556e-01 1.6219159871380565e-01 4.8633102156570029e-01  4.9659663993031061e-01 1.6234548680391719e-01 4.8423972084660805e-01  4.9625622534442909e-01 1.6250096236561554e-01 4.8243050416002520e-01  4.9596795698144347e-01 1.6265162404923961e-01 4.8088603887630799e-01  4.9573326586460503e-01 1.6278879968267465e-01 4.7961952945384501e-01  4.9545044233023666e-01 1.6298019186153001e-01 4.7807750905942370e-01  4.9527417239463595e-01 1.6311574584900929e-01 4.7710673542090021e-01  4.9506728558540208e-01 1.6328570724007835e-01 4.7596085114407116e-01  4.9454003150521325e-01 1.6376192376403392e-01 4.7301483639019143e-01  4.9433184669542790e-01 1.6396768488372976e-01 4.7184104840210550e-01  4.9415194510968224e-01 1.6415573877111161e-01 4.7082061198957414e-01  4.9399029520137172e-01 1.6433356091631934e-01 4.6989847556767583e-01  4.9384242377513099e-01 1.6450433909955425e-01 4.6905022972610205e-01  4.9370398807456389e-01 1.6467148051121583e-01 4.6825190700494185e-01  4.9356984017033090e-01 1.6484033820399940e-01 4.6747439659819556e-01  4.9328212507925717e-01 1.6522344305837930e-01 4.6579511793449102e-01  4.9319127205406860e-01 1.6535058849215381e-01 4.6526139993274623e-01  4.9312005832599148e-01 1.6545286112442131e-01 4.6484158232726219e-01  4.9306179759982000e-01 1.6553843170255092e-01 4.6449706568171778e-01  4.9301322002609271e-01 1.6561117971504880e-01 4.6420904100546639e-01  4.9297236120901911e-01 1.6567339951112794e-01 4.6396622488786710e-01  4.9293799282214207e-01 1.6572649423647096e-01 4.6376157462019080e-01  4.9290924359827898e-01 1.6577145379329677e-01 4.6359009416269603e-01  4.9288538785743469e-01 1.6580913990190430e-01 4.6344760097961035e-01  4.9286596019335910e-01 1.6584008416151358e-01 4.6333142239961933e-01  4.9285054172418752e-01 1.6586480195570125e-01 4.6323913398116678e-01  4.9283889200998915e-01 1.6588356535600382e-01 4.6316935576999324e-01  4.9283079274864849e-01 1.6589664802878412e-01 4.6312082171966845e-01  4.9282604152255172e-01 1.6590433483088324e-01 4.6309234286496909e-01  4.9282463270267607e-01 1.6590678588252980e-01 4.6308383608070708e-01  4.9282464570789825e-01 1.6590734880083546e-01 4.6308370378996472e-01  4.9282439635767550e-01 1.6590874897340604e-01 4.6308184996200902e-01  4.9282384624493975e-01 1.6591105196773789e-01 4.6307804283225801e-01  4.9282261368269448e-01 1.6591491464885885e-01 4.6306997930656851e-01  4.9281856505960853e-01 1.6592576257723074e-01 4.6304415614895733e-01  4.9281444220461396e-01 1.6593121652217271e-01 4.6301986723727634e-01  4.9281080019656209e-01 1.6593662804344969e-01 4.6299819678275239e-01  4.9280813760573905e-01 1.6594067680685226e-01 4.6298232008624601e-01  4.9280647411638240e-01 1.6594322369961023e-01 4.6297239438623183e-01  4.9280663325257984e-01 1.6594297981739595e-01 4.6297334401778184e-01  4.9280887326403033e-01 1.6593954270515365e-01 4.6298671234871647e-01  4.9281262912219681e-01 1.6593372015770910e-01 4.6300914760814194e-01  4.9282598748321682e-01 1.6592143914897017e-01 4.6308590806177619e-01  4.9282762731040375e-01 1.6592304873547187e-01 4.6309421127824979e-01  4.9282919315553947e-01 1.6592482667833916e-01 4.6310205279885197e-01  4.9283103992923366e-01 1.6592629156638558e-01 4.6311152771359204e-01  4.9283333035513371e-01 1.6592720337055131e-01 4.6312360364059141e-01  4.9283617211653408e-01 1.6592739263570239e-01 4.6313892465831979e-01  4.9283962235106332e-01 1.6592677765526362e-01 4.6315782960337393e-01  4.9284371458274862e-01 1.6592534060599065e-01 4.6318050651229736e-01  4.9284860309654799e-01 1.6592297134723810e-01 4.6320783060260540e-01  4.9286083416329401e-01 1.6591562727770662e-01 4.6327670984490499e-01  4.9286545221519718e-01 1.6591228675587827e-01 4.6330292303665499e-01  4.9286971472068131e-01 1.6590876972282884e-01 4.6332727415007818e-01  4.9287376417254319e-01 1.6590505656796065e-01 4.6335054164739636e-01  4.9287772936413948e-01 1.6590110512283818e-01 4.6337343760185840e-01  4.9288159674502491e-01 1.6589699335566965e-01 4.6339586053598425e-01  4.9288537616477829e-01 1.6589276699936786e-01 4.6341784711088263e-01  4.9288905804060607e-01 1.6588848508941881e-01 4.6343932406376065e-01  4.9289262717639326e-01 1.6588420860309608e-01 4.6346018705229058e-01  4.9289603815151078e-01 1.6588002808863894e-01 4.6348015759038641e-01  4.9289925803824325e-01 1.6587602261586284e-01 4.6349902882785710e-01  4.9290219761580861e-01 1.6587233973423543e-01 4.6351626464955453e-01  4.9290699841396690e-01 1.6586636228761564e-01 4.6354439314951268e-01  4.9291085835369358e-01 1.6586159403710996e-01 4.6356699077522850e-01  4.9291546893927418e-01 1.6585587198727866e-01 4.6359399075872776e-01  4.9292073046609486e-01 1.6584925262272976e-01 4.6362483428159007e-01  4.9292776949189687e-01 1.6583927021675965e-01 4.6366652530124514e-01  4.9292735456093806e-01 1.6583940803072808e-01 4.6366424026504599e-01  4.9292695144412074e-01 1.6583971818055557e-01 4.6366195281878281e-01  4.9292694248179664e-01 1.6583972528390512e-01 4.6366190188258199e-01  4.9292739224740928e-01 1.6583932172648277e-01 4.6366447599970584e-01  4.9292826612283308e-01 1.6583844890759109e-01 4.6366951116304622e-01  4.9292974599923045e-01 1.6583680390614161e-01 4.6367810157495454e-01  4.9293350679177833e-01 1.6583214789396822e-01 4.6370011271991618e-01  4.9293404238849881e-01 1.6583121292147934e-01 4.6370335063164192e-01  4.9293369268494297e-01 1.6583127543113524e-01 4.6370144461143276e-01  4.9293313945147282e-01 1.6583165216072895e-01 4.6369832373941561e-01  4.9293293361143214e-01 1.6583180041956530e-01 4.6369715947298612e-01  4.9293319650891670e-01 1.6583157844282018e-01 4.6369865879234523e-01  4.9293395629147696e-01 1.6583093429499210e-01 4.6370299280908206e-01  4.9293568524487319e-01 1.6582937176290438e-01 4.6371289163583251e-01  4.9294852801217481e-01 1.6581613851304136e-01 4.6378703430817803e-01  4.9295452913923488e-01 1.6580961811163722e-01 4.6382180512365989e-01  4.9295947420459502e-01 1.6580421594639741e-01 4.6385046647113071e-01  4.9296364561997769e-01 1.6579966547407649e-01 4.6387464001315237e-01  4.9296691078521809e-01 1.6579611845568668e-01 4.6389355525760517e-01  4.9297088790681526e-01 1.6579189342827899e-01 4.6391655692000627e-01  4.9297457576083481e-01 1.6578805593219934e-01 4.6393785356476153e-01  4.9297929583