<?xml version="1.0"?>
<VTKFile type="UnstructuredGrid"  version="0.1"  >
<UnstructuredGrid>
<Piece  NumberOfPoints="4940" NumberOfCells="9650">
<Points>
<DataArray  type="Float64"  NumberOfComponents="3"  format="ascii">500 250 0  0 250 0  250 500 0  250 0 0  256.8885856082646 499.9050767557906 0  263.7719401218049 499.6203791065173 0  270.6448364229772 499.1461232471188 0  277.5020553257866 498.4826693209355 0  284.3383895508592 497.6305211460281 0  291.1486476865662 496.5903258312597 0  297.9276581259182 495.3628732847843 0  304.6702729675493 493.9490956196674 0  311.3713719748657 492.3500664368026 0  318.0258664141369 490.5670000199653 0  324.6287029687753 488.6012504015818 0  331.1748675330201 486.4543103455647 0  337.6593890460416 484.1278102064655 0  344.0773432429536 481.6235166997244 0  350.4238564271474 478.9433315480048 0  356.694109139292 476.0892900492477 0  362.88333985546 473.0635595140469 0  368.9868485575419 469.8684376402048 0  375.0000003153078 466.5063507640667 0  380.9182288257928 462.9798520074548 0  386.7370398729688 459.2916193419558 0  392.4520147244077 455.444453565817 0  398.0588135356345 451.4412761437442 0  403.5531785622926 447.285127045646 0  408.9309374414144 442.9791624087773 0  414.1880064015299 438.5266521049243 0  419.3203932989752 433.9309773069245 0  424.324200661095 429.1956279150535 0  429.1956286596235 424.3241998957182 0  433.9309780058756 419.3203925397119 0  438.5266527445345 414.1880056671062 0  442.9791630130591 408.9309367076756 0  447.2851276060475 403.5531778422888 0  451.4412766621026 398.0588128303826 0  455.4444540361634 392.4520140460735 0  459.2916197786263 386.7370392045948 0  462.9798524073514 380.9182281752347 0  466.5063511234856 374.9999996927758 0  469.8684379657123 368.9868479560565 0  473.0635598144817 362.8833392617846 0  476.0892903190255 356.6941085676214 0  478.9433317963513 350.4238558609745 0  481.6235169154735 344.0773427117675 0  484.12781039012 337.6593885555221 0  486.4543105028062 331.1748670749914 0  488.601250531677 324.6287025528375 0  490.5670001317469 318.0258660188321 0  492.3500665291326 311.3713716102628 0  493.949095695951 304.6702726271575 0  495.3628733416623 297.9276578347343 0  496.5903258712341 291.1486474470129 0  497.6305211749058 284.3383893426084 0  498.4826693388848 277.502055163614 0  499.1461232580606 270.6448362909296 0  499.6203791109319 263.7719400417897 0  499.9050767571306 256.8885855596534 0  499.9050767559877 243.1114143988867 0  499.6203791069493 236.2280598860241 0  499.1461232485393 229.3551635941651 0  498.4826693235677 222.4979446979962 0  497.6305211491849 215.6616104719064 0  496.5903258357701 208.8513523404629 0  495.3628732906988 202.0723419043604 0  493.9490956264813 195.3297270628552 0  492.3500664487791 188.6286280724281 0  490.5670000344809 181.9741336371959 0  488.6012504175981 175.3712970824318 0  486.4543103623226 168.8251325157939 0  484.1278102222298 162.3406109960628 0  481.6235167152198 155.9226567951971 0  478.9433315621651 149.5761436051346 0  476.0892900516498 143.3058908657982 0  473.063559513628 137.1166601437124 0  469.8684376406648 131.0131514433083 0  466.5063507675389 124.9999996907064 0  462.9798520124137 119.0817711822745 0  459.2916193464549 113.2629601339176 0  455.4444535642773 107.5479852733717 0  451.4412761528674 101.9411864767781 0  447.2851270583545 96.44682145403524 0  442.9791624165781 91.06906256805769 0  438.5266521117469 85.81199360630404 0  433.9309773156125 80.67960671046254 0  429.1956279150353 75.67579933888632 0  424.3241998888952 70.80437133373906 0  419.3203925223282 66.06902197812161 0  414.1880056411937 61.47334723289828 0  408.9309366751728 57.0208369601728 0  403.5531778009394 52.71487236176898 0  398.058812796452 48.55872331295853 0  392.4520140187753 44.55554594490843 0  386.7370391799677 40.70838020528396 0  380.9182281475119 37.02014757560744 0  374.9999996718656 33.49364886444181 0  368.9868479340393 30.13156202237255 0  362.8833392380029 26.93644017348339 0  356.6941085456942 23.91070967062674 0  350.4238558420009 21.0566681953261 0  344.0773426899492 18.37648307566465 0  337.6593885328982 15.87218960140942 0  331.1748670549786 13.54568949032341 0  324.6287025315056 11.39874946165088 0  318.0258660010876 9.432999863235466 0  311.3713716017894 7.649933468721599 0  304.6702726190621 6.050904302234756 0  297.9276578269805 4.637126656823085 0  291.148647441857 3.409674127905504 0  284.3383893425031 2.369478825079682 0  277.502055159398 1.517330660648639 0  270.6448362875833 0.853876741662134 0  263.7719400401456 0.3796208889774277 0  256.8885855592052 0.09492324285704967 0  243.1114143979462 0.09492324403817065 0  236.2280598850882 0.3796208931023841 0  229.3551635938215 0.8538767514891958 0  222.4979446968584 1.517330676558146 0  215.6616104703111 2.369478851036291 0  208.8513523382973 3.409674164591252 0  202.0723419066374 4.637126708856528 0  195.3297270659513 6.050904372824903 0  188.628628074828 7.649933550613184 0  181.9741336377093 9.432999965373938 0  175.3712970793675 11.39874958336037 0  168.8251325057572 13.54568964112298 0  162.340610986655 15.87218978129263 0  155.9226567874317 18.37648328793418 0  149.576143602509 21.05666843898663 0  143.3058908718157 23.91070994551046 0  137.1166601505524 26.93644048291054 0  131.0131514451933 30.13156235831508 0  124.9999996848412 33.49364923584736 0  119.0817711715717 37.0201479941652 0  113.2629601211624 40.70838066187849 0  107.5479852622251 44.55554644345162 0  101.9411864693332 48.55872385260452 0  96.44682143286516 52.71487295812284 0  91.06906254351222 57.02083760363669 0  85.81199358272519 61.4733479087879 0  80.67960667988106 66.06902271253972 0  75.67579930062769 70.80437212218331 0  70.80437129287643 75.67580015310926 0  66.06902193673014 80.67960752263491 0  61.47334718684866 85.81199441168215 0  57.02083692524275 91.0690633672404 0  52.71487232786438 96.44682224262129 0  48.55872328070024 101.941187247437 0  44.55554591578033 107.5479860232332 0  40.7083801742321 113.2629608675606 0  37.02014754791168 119.0817718975441 0  33.49364883372994 125.000000381329 0  30.13156199866361 131.0131521097709 0  26.9364401549829 137.1166607985551 0  23.91070965524918 143.3058914868915 0  21.05666818346614 149.576144185037 0  18.37648306853811 155.9226573275967 0  15.8721895918909 162.3406114925245 0  13.54568948170046 168.8251329701392 0  11.39874945301878 175.3712974960928 0  9.432999857087736 181.9741340206533 0  7.649933466342702 188.6286284076045 0  6.050904301250966 195.3297273853278 0  4.637126656808988 202.0723421730917 0  3.409674127767772 208.8513525589684 0  2.369478824521138 215.6616106615248 0  1.517330660909465 222.4979448382452 0  0.8538767414496533 229.355163714981 0  0.3796208887135322 236.2280599646376 0  0.09492324266324204 243.1114144478261 0  0.0949232442452228 256.8885856095658 0  0.3796208935834784 263.7719401236316 0  0.8538767530323526 270.6448364248016 0  1.517330679476544 277.5020553295092 0  2.369478854618649 284.3383895555228 0  3.409674170191892 291.1486476952655 0  4.6371267162381 297.9276581311522 0  6.050904381420935 304.6702729724059 0  7.649933562385399 311.3713719716595 0  9.43299997979841 318.0258664133013 0  11.3987495994252 324.6287029719946 0  13.54568965885832 331.174867545904 0  15.87218979367188 337.6593890464085 0  18.37648329843151 344.0773432384132 0  21.05666844777872 350.423856417535 0  23.91070995156048 356.6941091410045 0  26.93644048988043 362.8833398632205 0  30.13156235982007 368.9868485575877 0  33.49364924138357 375.0000003247478 0  37.0201480006036 380.9182288389023 0  40.70838066758398 386.7370398875706 0  44.55554644477201 392.4520147396792 0  48.55872386086904 398.0588135419111 0  52.71487295981296 403.5531785693063 0  57.02083760525949 408.9309374584583 0  61.47334790862246 414.1880064170849 0  66.06902271205095 419.320393319588 0  70.80437211216579 424.3242006890749 0  75.67580013809859 429.195628692521 0  80.6796075127923 433.930978054209 0  85.81199439754931 438.5266528008431 0  91.06906334717917 442.9791630582355 0  96.44682221438322 447.2851276501571 0  101.9411872243843 451.441276702356 0  107.5479859945825 455.4444540643537 0  113.2629608446994 459.2916198108319 0  119.0817718768376 462.9798524393601 0  125.0000003647644 466.5063511567065 0  131.0131521012763 469.8684379967393 0  137.1166607840049 473.0635598376539 0  143.3058914748804 476.0892903390826 0  149.5761441732679 478.9433318113714 0  155.9226573130112 481.6235169255377 0  162.3406114779862 484.1278104026658 0  168.8251329570439 486.4543105138039 0  175.3712974805475 488.601250542119 0  181.9741340135204 490.5670001408953 0  188.6286284005059 492.3500665318597 0  195.3297273788229 493.9490956972913 0  202.0723421640089 495.3628733414168 0  208.8513525529672 496.5903258712308 0  215.6616106544547 497.6305211744985 0  222.4979448327038 498.4826693384772 0  229.3551637102845 499.1461232581612 0  236.2280599621369 499.6203791111485 0  243.1114144470173 499.9050767573145 0  155.2373389820306 474.8197567317462 0  25.36256300907667 153.9152755065208 0  432.3709625126712 412.6214396304305 0  6.013151705810699 246.637913163471 0  246.6379131630491 493.986848294322 0  338.6995838441862 22.68244767887072 0  477.3175523131281 338.6995838660569 0  493.9868482700757 246.6379131399102 0  246.6201155078769 6.218451882810491 0  417.6179310263282 72.7156044707053 0  102.2232990934413 445.0100869616822 0  63.66330858966404 92.20354579482142 0  391.3105220491464 50.73522820883105 0  72.79295043967942 418.0702734974704 0  448.290574428537 108.25674339002 0  402.4604651193511 440.7462829841712 0  97.55317348421397 59.11376320116034 0  136.7376477664901 33.58246472647134 0  363.3288394375288 465.6947312928271 0  44.0678766556007 381.0860953771871 0  469.6905266180034 142.3890690100806 0  22.68244791668644 338.6995843487432 0  338.699584349159 477.317552078365 0  173.389488083762 18.6681884918202 0  483.4809734778481 179.7121987795732 0  13.50237455842738 306.4709525540879 0  305.9825168523021 487.24416992
[...]
<PointData  Vectors="f_12"> 
<DataArray  type="Float64"  Name="f_12"  NumberOfComponents="3" format="ascii">0.0000000000000000e+00 2.6405381413851520e-01 4.5563862188246579e-01  0.0000000000000000e+00 2.6352516589263891e-01 4.7170652648002687e-01  0.0000000000000000e+00 2.8476288095623609e-01 4.3801199457194362e-01  0.0000000000000000e+00 2.6829780174949713e-01 4.9801749745085278e-01  0.0000000000000000e+00 2.8483012695880616e-01 4.3781949703176731e-01  0.0000000000000000e+00 2.8486963380076302e-01 4.3765228737283657e-01  0.0000000000000000e+00 2.8488469241638131e-01 4.3749312861027012e-01  0.0000000000000000e+00 2.8487324234719458e-01 4.3735224557265467e-01  0.0000000000000000e+00 2.8483511200738354e-01 4.3723056421846795e-01  0.0000000000000000e+00 2.8477115919867768e-01 4.3712428366427258e-01  0.0000000000000000e+00 2.8468120586300505e-01 4.3703499311196159e-01  0.0000000000000000e+00 2.8456537237804269e-01 4.3696310000351296e-01  0.0000000000000000e+00 2.8442410344872537e-01 4.3690739561656156e-01  0.0000000000000000e+00 2.8425732697073575e-01 4.3687062246359709e-01  0.0000000000000000e+00 2.8406451058585575e-01 4.3686117164795019e-01  0.0000000000000000e+00 2.8384953049708050e-01 4.3685176033275824e-01  0.0000000000000000e+00 2.8360829947504279e-01 4.3687987635747288e-01  0.0000000000000000e+00 2.8334568668873716e-01 4.3690731942747774e-01  0.0000000000000000e+00 2.8305947770769130e-01 4.3696231275572694e-01  0.0000000000000000e+00 2.8275149299939739e-01 4.3703263709989831e-01  0.0000000000000000e+00 2.8242210298268872e-01 4.3711916510502363e-01  0.0000000000000000e+00 2.8207252114887710e-01 4.3723514977153705e-01  0.0000000000000000e+00 2.8170345944698399e-01 4.3736720607168217e-01  0.0000000000000000e+00 2.8131486479898105e-01 4.3750231712635185e-01  0.0000000000000000e+00 2.8090842499097696e-01 4.3766154041009064e-01  0.0000000000000000e+00 2.8048583286727952e-01 4.3784451470416552e-01  0.0000000000000000e+00 2.8004978036223654e-01 4.3805757105318277e-01  0.0000000000000000e+00 2.7959592797028066e-01 4.3827223328915571e-01  0.0000000000000000e+00 2.7912763247648559e-01 4.3850294647686910e-01  0.0000000000000000e+00 2.7865132280255006e-01 4.3876853342284450e-01  0.0000000000000000e+00 2.7815928711252275e-01 4.3903873787106579e-01  0.0000000000000000e+00 2.7765873022493204e-01 4.3933184723555296e-01  0.0000000000000000e+00 2.7715210721038053e-01 4.3965112877175994e-01  0.0000000000000000e+00 2.7663130032863770e-01 4.3997419544232569e-01  0.0000000000000000e+00 2.7610998602204051e-01 4.4032836790308644e-01  0.0000000000000000e+00 2.7558307113835256e-01 4.4070035503582067e-01  0.0000000000000000e+00 2.7504353881294985e-01 4.4107662970823663e-01  0.0000000000000000e+00 2.7450652288976746e-01 4.4148082456539489e-01  0.0000000000000000e+00 2.7397514364396347e-01 4.4191325828573230e-01  0.0000000000000000e+00 2.7343800696086501e-01 4.4235641173153023e-01  0.0000000000000000e+00 2.7289347252511487e-01 4.4280832882791660e-01  0.0000000000000000e+00 2.7235836827816851e-01 4.4328744797281044e-01  0.0000000000000000e+00 2.7183046401440059e-01 4.4378863554062181e-01  0.0000000000000000e+00 2.7130197421022162e-01 4.4430263708718448e-01  0.0000000000000000e+00 2.7078149306784205e-01 4.4483679761798639e-01  0.0000000000000000e+00 2.7026841131367269e-01 4.4538916627914932e-01  0.0000000000000000e+00 2.6976171973465768e-01 4.4595775719146363e-01  0.0000000000000000e+00 2.6925948639035446e-01 4.4654069630265575e-01  0.0000000000000000e+00 2.6877566719107587e-01 4.4714670217664154e-01  0.0000000000000000e+00 2.6830063998716785e-01 4.4776816993746643e-01  0.0000000000000000e+00 2.6783691220702549e-01 4.4840565656155207e-01  0.0000000000000000e+00 2.6738703646755418e-01 4.4906037060988985e-01  0.0000000000000000e+00 2.6694381049157423e-01 4.4972720849805409e-01  0.0000000000000000e+00 2.6652653776398016e-01 4.5041605005393626e-01  0.0000000000000000e+00 2.6612077906084414e-01 4.5111827139856669e-01  0.0000000000000000e+00 2.6572598853124457e-01 4.5183342389283254e-01  0.0000000000000000e+00 2.6535190531386427e-01 4.5256518420224029e-01  0.0000000000000000e+00 2.6499641646546074e-01 4.5331191079273453e-01  0.0000000000000000e+00 2.6465839147873593e-01 4.5407239160310564e-01  0.0000000000000000e+00 2.6432284310510529e-01 4.5484101618317530e-01  0.0000000000000000e+00 2.6375503873173634e-01 4.5643279832830252e-01  0.0000000000000000e+00 2.6349410259831629e-01 4.5724494863920950e-01  0.0000000000000000e+00 2.6324457476692820e-01 4.5806658332847444e-01  0.0000000000000000e+00 2.6302817033434528e-01 4.5890238390391497e-01  0.0000000000000000e+00 2.6283232196064821e-01 4.5974848228932275e-01  0.0000000000000000e+00 2.6265274108708736e-01 4.6060336920527339e-01  0.0000000000000000e+00 2.6248577372807458e-01 4.6146617336358853e-01  0.0000000000000000e+00 2.6234791969939891e-01 4.6233898463999973e-01  0.0000000000000000e+00 2.6222824308795939e-01 4.6321926369097433e-01  0.0000000000000000e+00 2.6212337013017467e-01 4.6410617990549113e-01  0.0000000000000000e+00 2.6205551354219225e-01 4.6500085413102016e-01  0.0000000000000000e+00 2.6199100313628998e-01 4.6589994920752609e-01  0.0000000000000000e+00 2.6193961468297666e-01 4.6680375009612640e-01  0.0000000000000000e+00 2.6192218053926769e-01 4.6771226372791685e-01  0.0000000000000000e+00 2.6192163403073454e-01 4.6862376448612186e-01  0.0000000000000000e+00 2.6193755304550492e-01 4.6953759171558607e-01  0.0000000000000000e+00 2.6196928624947369e-01 4.7045300690348713e-01  0.0000000000000000e+00 2.6201544819553613e-01 4.7136934355678373e-01  0.0000000000000000e+00 2.6207988662392573e-01 4.7228539918019724e-01  0.0000000000000000e+00 2.6217051630140920e-01 4.7319859217270038e-01  0.0000000000000000e+00 2.6225539584842195e-01 4.7411312940901545e-01  0.0000000000000000e+00 2.6236884946955302e-01 4.7502228777380584e-01  0.0000000000000000e+00 2.6248740578518293e-01 4.7592916431832083e-01  0.0000000000000000e+00 2.6262557154044136e-01 4.7682976440098745e-01  0.0000000000000000e+00 2.6276997502291005e-01 4.7772603294912347e-01  0.0000000000000000e+00 2.6292763884583109e-01 4.7861500196253193e-01  0.0000000000000000e+00 2.6309598228681025e-01 4.7949604697512177e-01  0.0000000000000000e+00 2.6327341382323993e-01 4.8036846546300288e-01  0.0000000000000000e+00 2.6345892728201753e-01 4.8123134350044305e-01  0.0000000000000000e+00 2.6365060497861131e-01 4.8208419471889180e-01  0.0000000000000000e+00 2.6384996006334321e-01 4.8292488332615535e-01  0.0000000000000000e+00 2.6405465718003057e-01 4.8375299504679536e-01  0.0000000000000000e+00 2.6425908304236057e-01 4.8457106452844173e-01  0.0000000000000000e+00 2.6447021268814636e-01 4.8537273499641492e-01  0.0000000000000000e+00 2.6469123719388005e-01 4.8615312146039519e-01  0.0000000000000000e+00 2.6490382759757936e-01 4.8692566074088750e-01  0.0000000000000000e+00 2.6511651990713209e-01 4.8768188423331860e-01  0.0000000000000000e+00 2.6533620418440640e-01 4.8841306585162819e-01  0.0000000000000000e+00 2.6554768318957267e-01 4.8913312032138695e-01  0.0000000000000000e+00 2.6575671369064308e-01 4.8983430412947904e-01  0.0000000000000000e+00 2.6597046069758906e-01 4.9050540504371970e-01  0.0000000000000000e+00 2.6617772361876885e-01 4.9115786890092922e-01  0.0000000000000000e+00 2.6637735855526407e-01 4.9179310820128064e-01  0.0000000000000000e+00 2.6657051029851353e-01 4.9240736699455012e-01  0.0000000000000000e+00 2.6675984777266737e-01 4.9299405377964378e-01  0.0000000000000000e+00 2.6694092462594521e-01 4.9355897290374068e-01  0.0000000000000000e+00 2.6711450028727679e-01 4.9409880969866260e-01  0.0000000000000000e+00 2.6728022100310167e-01 4.9461195956267268e-01  0.0000000000000000e+00 2.6743623944139783e-01 4.9510075146588373e-01  0.0000000000000000e+00 2.6758138439145246e-01 4.9556688816127431e-01  0.0000000000000000e+00 2.6771729178973858e-01 4.9600339378255304e-01  0.0000000000000000e+00 2.6784399215597277e-01 4.9640790891162617e-01  0.0000000000000000e+00 2.6795917344393755e-01 4.9678535262462287e-01  0.0000000000000000e+00 2.6806240681402538e-01 4.9713515854377588e-01  0.0000000000000000e+00 2.6815366353271869e-01 4.9745649191516128e-01  0.0000000000000000e+00 2.6823190373413458e-01 4.9775181148536429e-01  0.0000000000000000e+00 2.6835322264398159e-01 4.9823849616999161e-01  0.0000000000000000e+00 2.6838996088414147e-01 4.9846618942616489e-01  0.0000000000000000e+00 2.6842044166233020e-01 4.9862499952992245e-01  0.0000000000000000e+00 2.6843425454688052e-01 4.9877265255571407e-01  0.0000000000000000e+00 2.6843532994936775e-01 4.9888766294869030e-01  0.0000000000000000e+00 2.6842420572745374e-01 4.9896811534576618e-01  0.0000000000000000e+00 2.6839987920789249e-01 4.9902000571441862e-01  0.0000000000000000e+00 2.6836218831832981e-01 4.9904370481883548e-01  0.0000000000000000e+00 2.6831382918348795e-01 4.9902818148302713e-01  0.0000000000000000e+00 2.6824877790718893e-01 4.9900195961363497e-01  0.0000000000000000e+00 2.6817540046476618e-01 4.9892835293864518e-01  0.0000000000000000e+00 2.6809002501908230e-01 4.9882708350005589e-01  0.0000000000000000e+00 2.6799474573252252e-01 4.9868994731106142e-01  0.0000000000000000e+00 2.6788393810792338e-01 4.9854121266488605e-01  0.0000000000000000e+00 2.6776403161037271e-01 4.9835777526255598e-01  0.0000000000000000e+00 2.6763638929825145e-01 4.9813796032547125e-01  0.0000000000000000e+00 2.6749845815189388e-01 4.9789265194433885e-01  0.0000000000000000e+00 2.6735204382955829e-01 4.9761854454058152e-01  0.0000000000000000e+00 2.6719726611202060e-01 4.9731743637817322e-01  0.0000000000000000e+00 2.6703395208969055e-01 4.9699142016277742e-01  0.0000000000000000e+00 2.6686536114749543e-01 4.9663526595435675e-01  0.0000000000000000e+00 2.6669299671656405e-01 4.9624806307759900e-01  0.0000000000000000e+00 2.6651394282871116e-01 4.9583871435797594e-01  0.0000000000000000e+00 2.6632949321815891e-01 4.9540614779398512e-01  0.0000000000000000e+00 2.6614140339607728e-01 4.9494892958452841e-01  0.0000000000000000e+00 2.6595096920141192e-01 4.9446703795019703e-01  0.0000000000000000e+00 2.6575941316506763e-01 4.9396069461879055e-01  0.0000000000000000e+00 2.6556674684020226e-01 4.9343195658998940e-01  0.0000000000000000e+00 2.6537461180130661e-01 4.9288054681528676e-01  0.0000000000000000e+00 2.6518354497436186e-01 4.9230770542911734e-01  0.0000000000000000e+00 2.6499416215253541e-01 4.9171454821266813e-01  0.0000000000000000e+00 2.6480751914870965e-01 4.9110166983149578e-01  0.0000000000000000e+00 2.6462209473657500e-01 4.9047207165279261e-01  0.0000000000000000e+00 2.6444175195646047e-01 4.8982370343569370e-01  0.0000000000000000e+00 2.6427085214695839e-01 4.8915419012472505e-01  0.0000000000000000e+00 2.6410566209501768e-01 4.8846899019070544e-01  0.0000000000000000e+00 2.6394895191282447e-01 4.8776718120533130e-01  0.0000000000000000e+00 2.6379865509980993e-01 4.8705186359746250e-01  0.0000000000000000e+00 2.6365677389877190e-01 4.8632291239148440e-01  0.0000000000000000e+00 2.6352072329854764e-01 4.8558289199429516e-01  0.0000000000000000e+00 2.6340318158543291e-01 4.8482597348707401e-01  0.0000000000000000e+00 2.6330062681567867e-01 4.8405570252839408e-01  0.0000000000000000e+00 2.6319750869362990e-01 4.8328132189579021e-01  0.0000000000000000e+00 2.6311482219013010e-01 4.8249330352763065e-01  0.0000000000000000e+00 2.6304828927186025e-01 4.8169516407292728e-01  0.0000000000000000e+00 2.6300249924854824e-01 4.8088663923818559e-01  0.0000000000000000e+00 2.6295416371925567e-01 4.8007717786032034e-01  0.0000000000000000e+00 2.6294082217629305e-01 4.7925431617264408e-01  0.0000000000000000e+00 2.6293125597998390e-01 4.7843003985282184e-01  0.0000000000000000e+00 2.6294969167657628e-01 4.7759736836291550e-01  0.0000000000000000e+00 2.6296310751400676e-01 4.7676618606888821e-01  0.0000000000000000e+00 2.6300905494187415e-01 4.7592756621478360e-01  0.0000000000000000e+00 2.6307896701771633e-01 4.7508509636229174e-01  0.0000000000000000e+00 2.6316350247835457e-01 4.7424150701574974e-01  0.0000000000000000e+00 2.6326878140952520e-01 4.7339639981994069e-01  0.0000000000000000e+00 2.6339066523479387e-01 4.7255109346765206e-01  0.0000000000000000e+00 2.6368703339649119e-01 4.7086187996460976e-01  0.0000000000000000e+00 2.6387028062361018e-01 4.7001863933402555e-01  0.0000000000000000e+00 2.6406716035089639e-01 4.6917778378595981e-01  0.0000000000000000e+00 2.6428675127555978e-01 4.6833949826361720e-01  0.0000000000000000e+00 2.6452391684902699e-01 4.6750452217760929e-01  0.0000000000000000e+00 2.6478028432188955e-01 4.6667340183128020e-01  0.0000000000000000e+00 2.6505509457098986e-01 4.6584667409653652e-01  0.0000000000000000e+00 2.6534882010676575e-01 4.6502493356990576e-01  0.0000000000000000e+00 2.6566164899003664e-01 4.6420879042950880e-01  0.0000000000000000e+00 2.6599404754557149e-01 4.6339895719107010e-01  0.0000000000000000e+00 2.6634191726905865e-01 4.6259543835233918e-01  0.0000000000000000e+00 2.6671282472986518e-01 4.6180025265561020e-01  0.0000000000000000e+00 2.6709025449655105e-01 4.6101062007322163e-01  0.0000000000000000e+00 2.6748746402705398e-01 4.6022994262923311e-01  0.0000000000000000e+00 2.6790323465255028e-01 4.5945864962333111e-01  0.0000000000000000e+00 2.6831534222094600e-01 4.5869082182590726e-01  0.0000000000000000e+00 2.6875191871892518e-01 4.5793519816588379e-01  0.0000000000000000e+00 2.6920907531902971e-01 4.5719210643051089e-01  0.0000000000000000e+00 2.6967067942760331e-01 4.5645643512185269e-01  0.0000000000000000e+00 2.7014094011869072e-01 4.5572996512387864e-01  0.0000000000000000e+00 2.7062027322988974e-01 4.5501367768654349e-01  0.0000000000000000e+00 2.7110976599568459e-01 4.5430881735293793e-01  0.0000000000000000e+00 2.7160612271980872e-01 4.5361466055623167e-01  0.0000000000000000e+00 2.7210703212315063e-01 4.5293041726340072e-01  0.0000000000000000e+00 2.7261889716724735e-01 4.5226180228638008e-01  0.0000000000000000e+00 2.7313087326865398e-01 4.5160190709861231e-01  0.0000000000000000e+00 2.7364364496736110e-01 4.5095239590644653e-01  0.0000000000000000e+00 2.7416445555404073e-01 4.5032053038592318e-01  0.0000000000000000e+00 2.7468224383382750e-01 4.4969809434052660e-01  0.0000000000000000e+00 2.7519851918447519e-01 4.4908722393555900e-01  0.0000000000000000e+00 2.7571322505931090e-01 4.4848954052442735e-01  0.0000000000000000e+00 2.7622601913228800e-01 4.4790639581694902e-01  0.0000000000000000e+00 2.7673448520155985e-01 4.4733674999670070e-01  0.0000000000000000e+00 2.7723652863470016e-01 4.4677910179087144e-01  0.0000000000000000e+00 2.7773022045817214e-01 4.4623143457817172e-01  0.0000000000000000e+00 2.7821976930759473e-01 4.4570596845939126e-01  0.0000000000000000e+00 2.7869990438572473e-01 4.4519427050086624e-01  0.0000000000000000e+00 2.7916544694711631e-01 4.4468499380681059e-01  0.0000000000000000e+00 2.7962222752281868e-01 4.4419732109146121e-01  0.0000000000000000e+00 2.8006691600289846e-01 4.4372608609633529e-01  0.0000000000000000e+00 2.8049713343330029e-01 4.4326621026852769e-01  0.0000000000000000e+00 2.8091283528229088e-01 4.4282260986373562e-01  0.0000000000000000e+00 2.8131248350974664e-01 4.4239125115856986e-01  0.0000000000000000e+00 2.8169564991998242e-01 4.4197972210864217e-01  0.0000000000000000e+00 2.8206077333142399e-01 4.4157919443389637e-01  0.0000000000000000e+00 2.8240715247614934e-01 4.4119573877068713e-01  0.0000000000000000e+00 2.8273394434055410e-01 4.4082903153690955e-01  0.0000000000000000e+00 2.8304031839963745e-01 4.4047304164510981e-01  0.0000000000000000e+00 2.8332520801355393e-01 4.4013722194620136e-01  0.0000000000000000e+00 2.8358805539810056e-01 4.3981788882122302e-01  0.0000000000000000e+00 2.8382848648564252e-01 4.3950987168912820e-01  0.0000000000000000e+00 2.8404551546401702e-01 4.3921970145055095e-01  0.0000000000000000e+00 2.8423752608561270e-01 4.3895238092819944e-01  0.0000000000000000e+00 2.8440615490881516e-01 4.3869510268216638e-01  0.0000000000000000e+00 2.8455025446202659e-01 4.3845113179677681e-01  0.0000000000000000e+00 2.8466820101930973e-01 4.3822976979701206e-01  0.0000000000000000e+00 2.8108538034596370e-01 4.4320077923718848e-01  0.0000000000000000e+00 2.6374689008725194e-01 4.8354322523879167e-01  0.0000000000000000e+00 2.7645643169928319e-01 4.4081040896649171e-01  0.0000000000000000e+00 2.6402684725454756e-01 4.7214438204049930e-01  0.0000000000000000e+00 2.8453677403833860e-01 4.3880124637293644e-01  0.0000000000000000e+00 2.6676074612151401e-01 4.9158199529266805e-01  0.0000000000000000e+00 2.6989593000878570e-01 4.4682497330186810e-01  0.0000000000000000e+00 2.6445260944001964e-01 4.5640859419556679e-01  0.0000000000000000e+00 2.6852649649265398e-01 4.9743305401383175e-01  0.0000000000000000e+00 2.6401085209338188e-01 4.8142765556187878e-01  0.0000000000000000e+00 2.7707559716420899e-01 4.4753262418715939e-01  0.0000000000000000e+00 2.6528561690741848e-01 4.9094722752961312e-01  0.0000000000000000e+00 2.6497513831736452e-01 4.8551914949041930e-01  0.0000000000000000e+00 2.7415079833118350e-01 4.5105060744601144e-01  0.0000000000000000e+00 2.6298092034216597e-01 4.7540614607000103e-01  0.0000000000000000e+00 2.7939646603589868e-01 4.3905796523019675e-01  0.0000000000000000e+00 2.6654616113165341e-01 4.9464621684265631e-01  0.0000000000000000e+00 2.6766488676756822e-01 4.9713016301168189e-01  0.0000000000000000e+00 2.8213569051562576e-01 4.3794292025132447e-01  0.0000000000000000e+00 2.7076744983325823e-01 4.5568400797972253e-01  0.0000000000000000e+00 2.6245758332030666e-01 4.7006952636319510e-01  0.0000000000000000e+00 2.6775433232853535e-01 4.6088525588723372e-01  0.0000000000000000e+00 2.8334291471653550e-01 4.3760422695959289e-01  0.0000000000000000e+00 2.6834589291982636e-01 4.9813589837842709e-01  0.0000000000000000e+00 2.6269110094252468e-01 4.6484079078830220e-01  0.0000000000000000e+00 2.6611461558535743e-01 4.6482212687900892e-01  0.0000000000000000e+00 2.8432650085293032e-01 4.3768178031903276e-01  0.0000000000000000e+00 2.8306517311408047e-01 4.4098555821258001e-01  0.0000000000000000e+00 2.6348334617457070e-01 4.7869886877892959e-01  0.0000000000000000e+00 2.6774439067728578e-01 4.9472480803084029e-01  0.0000000000000000e+00 2.6721352950955041e-01 4.5057349967483140e-01  0.0000000000000000e+00 2.7348796907469958e-01 4.4309373587925915e-01  0.0000000000000000e+00 2.6858693894772961e-01 4.9835883596369579e-01  0.0000000000000000e+00 2.6313520481489716e-01 4.6135430458224108e-01  0.0000000000000000e+00 2.6495794883471402e-01 4.6803277512517483e-01  0.0000000000000000e+00 2.8466876732307483e-01 4.3798966742366163e-01  0.0000000000000000e+00 2.6574283343648392e-01 4.8836773423407126e-01  0.0000000000000000e+00 2.6430115310256957e-01 4.8707141799064402e-01  0.0000000000000000e+00 2.8398784831625823e-01 4.3975238854039395e-01  0.0000000000000000e+00 2.7941986870557467e-01 4.4504027055433815e-01  0.0000000000000000e+00 2.6366225037703928e-01 4.7535119802740983e-01  0.0000000000000000e+00 2.6821431352538661e-01 4.9628074772614228e-01  0.0000000000000000e+00 2.6574803074588721e-01 4.5330679606675406e-01  0.0000000000000000e+00 2.8065889802275651e-01 4.3860566547945035e-01  0.0000000000000000e+00 2.6856453971180033e-01 4.4869446147151792e-01  0.0000000000000000e+00 2.6859632452563953e-01 4.9810638988630468e-01  0.0000000000000000e+00 2.6727597128378117e-01 4.9327370158745426e-01  0.0000000000000000e+00 2.6380798615689621e-01 4.5886118836264883e-01  0.0000000000000000e+00 2.6352156471891863e-01 4.7891708972287489e-01  0.0000000000000000e+00 2.8216157986426510e-01 4.4204313847592047e-01  0.0000000000000000e+00 2.7498134604077423e-01 4.4201858337954369e-01  0.0000000000000000e+00 2.7271873608480340e-01 4.5301688601947171e-01  0.0000000000000000e+00 2.6706680722079196e-01 4.9582291287801966e-01  0.0000000000000000e+00 2.6939703197813292e-01 4.5781909888180494e-01  0.0000000000000000e+00 2.6355718004473139e-01 4.8108578529804991e-01  0.0000000000000000e+00 2.7187625777851737e-01 4.4465893571588999e-01  0.0000000000