<?xml version="1.0"?>
<VTKFile type="UnstructuredGrid"  version="0.1"  >
<UnstructuredGrid>
<Piece  NumberOfPoints="4940" NumberOfCells="9650">
<Points>
<DataArray  type="Float64"  NumberOfComponents="3"  format="ascii">500 250 0  0 250 0  250 500 0  250 0 0  256.8885856082646 499.9050767557906 0  263.7719401218049 499.6203791065173 0  270.6448364229772 499.1461232471188 0  277.5020553257866 498.4826693209355 0  284.3383895508592 497.6305211460281 0  291.1486476865662 496.5903258312597 0  297.9276581259182 495.3628732847843 0  304.6702729675493 493.9490956196674 0  311.3713719748657 492.3500664368026 0  318.0258664141369 490.5670000199653 0  324.6287029687753 488.6012504015818 0  331.1748675330201 486.4543103455647 0  337.6593890460416 484.1278102064655 0  344.0773432429536 481.6235166997244 0  350.4238564271474 478.9433315480048 0  356.694109139292 476.0892900492477 0  362.88333985546 473.0635595140469 0  368.9868485575419 469.8684376402048 0  375.0000003153078 466.5063507640667 0  380.9182288257928 462.9798520074548 0  386.7370398729688 459.2916193419558 0  392.4520147244077 455.444453565817 0  398.0588135356345 451.4412761437442 0  403.5531785622926 447.285127045646 0  408.9309374414144 442.9791624087773 0  414.1880064015299 438.5266521049243 0  419.3203932989752 433.9309773069245 0  424.324200661095 429.1956279150535 0  429.1956286596235 424.3241998957182 0  433.9309780058756 419.3203925397119 0  438.5266527445345 414.1880056671062 0  442.9791630130591 408.9309367076756 0  447.2851276060475 403.5531778422888 0  451.4412766621026 398.0588128303826 0  455.4444540361634 392.4520140460735 0  459.2916197786263 386.7370392045948 0  462.9798524073514 380.9182281752347 0  466.5063511234856 374.9999996927758 0  469.8684379657123 368.9868479560565 0  473.0635598144817 362.8833392617846 0  476.0892903190255 356.6941085676214 0  478.9433317963513 350.4238558609745 0  481.6235169154735 344.0773427117675 0  484.12781039012 337.6593885555221 0  486.4543105028062 331.1748670749914 0  488.601250531677 324.6287025528375 0  490.5670001317469 318.0258660188321 0  492.3500665291326 311.3713716102628 0  493.949095695951 304.6702726271575 0  495.3628733416623 297.9276578347343 0  496.5903258712341 291.1486474470129 0  497.6305211749058 284.3383893426084 0  498.4826693388848 277.502055163614 0  499.1461232580606 270.6448362909296 0  499.6203791109319 263.7719400417897 0  499.9050767571306 256.8885855596534 0  499.9050767559877 243.1114143988867 0  499.6203791069493 236.2280598860241 0  499.1461232485393 229.3551635941651 0  498.4826693235677 222.4979446979962 0  497.6305211491849 215.6616104719064 0  496.5903258357701 208.8513523404629 0  495.3628732906988 202.0723419043604 0  493.9490956264813 195.3297270628552 0  492.3500664487791 188.6286280724281 0  490.5670000344809 181.9741336371959 0  488.6012504175981 175.3712970824318 0  486.4543103623226 168.8251325157939 0  484.1278102222298 162.3406109960628 0  481.6235167152198 155.9226567951971 0  478.9433315621651 149.5761436051346 0  476.0892900516498 143.3058908657982 0  473.063559513628 137.1166601437124 0  469.8684376406648 131.0131514433083 0  466.5063507675389 124.9999996907064 0  462.9798520124137 119.0817711822745 0  459.2916193464549 113.2629601339176 0  455.4444535642773 107.5479852733717 0  451.4412761528674 101.9411864767781 0  447.2851270583545 96.44682145403524 0  442.9791624165781 91.06906256805769 0  438.5266521117469 85.81199360630404 0  433.9309773156125 80.67960671046254 0  429.1956279150353 75.67579933888632 0  424.3241998888952 70.80437133373906 0  419.3203925223282 66.06902197812161 0  414.1880056411937 61.47334723289828 0  408.9309366751728 57.0208369601728 0  403.5531778009394 52.71487236176898 0  398.058812796452 48.55872331295853 0  392.4520140187753 44.55554594490843 0  386.7370391799677 40.70838020528396 0  380.9182281475119 37.02014757560744 0  374.9999996718656 33.49364886444181 0  368.9868479340393 30.13156202237255 0  362.8833392380029 26.93644017348339 0  356.6941085456942 23.91070967062674 0  350.4238558420009 21.0566681953261 0  344.0773426899492 18.37648307566465 0  337.6593885328982 15.87218960140942 0  331.1748670549786 13.54568949032341 0  324.6287025315056 11.39874946165088 0  318.0258660010876 9.432999863235466 0  311.3713716017894 7.649933468721599 0  304.6702726190621 6.050904302234756 0  297.9276578269805 4.637126656823085 0  291.148647441857 3.409674127905504 0  284.3383893425031 2.369478825079682 0  277.502055159398 1.517330660648639 0  270.6448362875833 0.853876741662134 0  263.7719400401456 0.3796208889774277 0  256.8885855592052 0.09492324285704967 0  243.1114143979462 0.09492324403817065 0  236.2280598850882 0.3796208931023841 0  229.3551635938215 0.8538767514891958 0  222.4979446968584 1.517330676558146 0  215.6616104703111 2.369478851036291 0  208.8513523382973 3.409674164591252 0  202.0723419066374 4.637126708856528 0  195.3297270659513 6.050904372824903 0  188.628628074828 7.649933550613184 0  181.9741336377093 9.432999965373938 0  175.3712970793675 11.39874958336037 0  168.8251325057572 13.54568964112298 0  162.340610986655 15.87218978129263 0  155.9226567874317 18.37648328793418 0  149.576143602509 21.05666843898663 0  143.3058908718157 23.91070994551046 0  137.1166601505524 26.93644048291054 0  131.0131514451933 30.13156235831508 0  124.9999996848412 33.49364923584736 0  119.0817711715717 37.0201479941652 0  113.2629601211624 40.70838066187849 0  107.5479852622251 44.55554644345162 0  101.9411864693332 48.55872385260452 0  96.44682143286516 52.71487295812284 0  91.06906254351222 57.02083760363669 0  85.81199358272519 61.4733479087879 0  80.67960667988106 66.06902271253972 0  75.67579930062769 70.80437212218331 0  70.80437129287643 75.67580015310926 0  66.06902193673014 80.67960752263491 0  61.47334718684866 85.81199441168215 0  57.02083692524275 91.0690633672404 0  52.71487232786438 96.44682224262129 0  48.55872328070024 101.941187247437 0  44.55554591578033 107.5479860232332 0  40.7083801742321 113.2629608675606 0  37.02014754791168 119.0817718975441 0  33.49364883372994 125.000000381329 0  30.13156199866361 131.0131521097709 0  26.9364401549829 137.1166607985551 0  23.91070965524918 143.3058914868915 0  21.05666818346614 149.576144185037 0  18.37648306853811 155.9226573275967 0  15.8721895918909 162.3406114925245 0  13.54568948170046 168.8251329701392 0  11.39874945301878 175.3712974960928 0  9.432999857087736 181.9741340206533 0  7.649933466342702 188.6286284076045 0  6.050904301250966 195.3297273853278 0  4.637126656808988 202.0723421730917 0  3.409674127767772 208.8513525589684 0  2.369478824521138 215.6616106615248 0  1.517330660909465 222.4979448382452 0  0.8538767414496533 229.355163714981 0  0.3796208887135322 236.2280599646376 0  0.09492324266324204 243.1114144478261 0  0.0949232442452228 256.8885856095658 0  0.3796208935834784 263.7719401236316 0  0.8538767530323526 270.6448364248016 0  1.517330679476544 277.5020553295092 0  2.369478854618649 284.3383895555228 0  3.409674170191892 291.1486476952655 0  4.6371267162381 297.9276581311522 0  6.050904381420935 304.6702729724059 0  7.649933562385399 311.3713719716595 0  9.43299997979841 318.0258664133013 0  11.3987495994252 324.6287029719946 0  13.54568965885832 331.174867545904 0  15.87218979367188 337.6593890464085 0  18.37648329843151 344.0773432384132 0  21.05666844777872 350.423856417535 0  23.91070995156048 356.6941091410045 0  26.93644048988043 362.8833398632205 0  30.13156235982007 368.9868485575877 0  33.49364924138357 375.0000003247478 0  37.0201480006036 380.9182288389023 0  40.70838066758398 386.7370398875706 0  44.55554644477201 392.4520147396792 0  48.55872386086904 398.0588135419111 0  52.71487295981296 403.5531785693063 0  57.02083760525949 408.9309374584583 0  61.47334790862246 414.1880064170849 0  66.06902271205095 419.320393319588 0  70.80437211216579 424.3242006890749 0  75.67580013809859 429.195628692521 0  80.6796075127923 433.930978054209 0  85.81199439754931 438.5266528008431 0  91.06906334717917 442.9791630582355 0  96.44682221438322 447.2851276501571 0  101.9411872243843 451.441276702356 0  107.5479859945825 455.4444540643537 0  113.2629608446994 459.2916198108319 0  119.0817718768376 462.9798524393601 0  125.0000003647644 466.5063511567065 0  131.0131521012763 469.8684379967393 0  137.1166607840049 473.0635598376539 0  143.3058914748804 476.0892903390826 0  149.5761441732679 478.9433318113714 0  155.9226573130112 481.6235169255377 0  162.3406114779862 484.1278104026658 0  168.8251329570439 486.4543105138039 0  175.3712974805475 488.601250542119 0  181.9741340135204 490.5670001408953 0  188.6286284005059 492.3500665318597 0  195.3297273788229 493.9490956972913 0  202.0723421640089 495.3628733414168 0  208.8513525529672 496.5903258712308 0  215.6616106544547 497.6305211744985 0  222.4979448327038 498.4826693384772 0  229.3551637102845 499.1461232581612 0  236.2280599621369 499.6203791111485 0  243.1114144470173 499.9050767573145 0  155.2373389820306 474.8197567317462 0  25.36256300907667 153.9152755065208 0  432.3709625126712 412.6214396304305 0  6.013151705810699 246.637913163471 0  246.6379131630491 493.986848294322 0  338.6995838441862 22.68244767887072 0  477.3175523131281 338.6995838660569 0  493.9868482700757 246.6379131399102 0  246.6201155078769 6.218451882810491 0  417.6179310263282 72.7156044707053 0  102.2232990934413 445.0100869616822 0  63.66330858966404 92.20354579482142 0  391.3105220491464 50.73522820883105 0  72.79295043967942 418.0702734974704 0  448.290574428537 108.25674339002 0  402.4604651193511 440.7462829841712 0  97.55317348421397 59.11376320116034 0  136.7376477664901 33.58246472647134 0  363.3288394375288 465.6947312928271 0  44.0678766556007 381.0860953771871 0  469.6905266180034 142.3890690100806 0  22.68244791668644 338.6995843487432 0  338.699584349159 477.317552078365 0  173.389488083762 18.6681884918202 0  483.4809734778481 179.7121987795732 0  13.50237455842738 306.4709525540879 0  305.9825168523021 487.24416992
[...]
<PointData  Vectors="f_12"> 
<DataArray  type="Float64"  Name="f_12"  NumberOfComponents="3" format="ascii">0.0000000000000000e+00 5.6514641880776595e-01 2.0627735106333037e-01  0.0000000000000000e+00 4.9303709222379410e-01 1.9587520800141101e-01  0.0000000000000000e+00 6.3477134155950032e-01 2.2068042918155584e-01  0.0000000000000000e+00 3.7415590315570396e-01 1.8506105947551621e-01  0.0000000000000000e+00 6.3544267351557848e-01 2.2085124171000811e-01  0.0000000000000000e+00 6.3602029349029832e-01 2.2099938034896111e-01  0.0000000000000000e+00 6.3658170246504864e-01 2.2114330176207539e-01  0.0000000000000000e+00 6.3706387984281687e-01 2.2126762658444599e-01  0.0000000000000000e+00 6.3749485778701431e-01 2.2137903373719048e-01  0.0000000000000000e+00 6.3786812164933582e-01 2.2147579375736567e-01  0.0000000000000000e+00 6.3818582643032351e-01 2.2155832398073502e-01  0.0000000000000000e+00 6.3845540192811434e-01 2.2162833109473112e-01  0.0000000000000000e+00 6.3866965062092018e-01 2.2168396302137591e-01  0.0000000000000000e+00 6.3882367677515228e-01 2.2172392724605131e-01  0.0000000000000000e+00 6.3886883074710621e-01 2.2173622347483726e-01  0.0000000000000000e+00 6.3895874483227588e-01 2.2175862804173918e-01  0.0000000000000000e+00 6.3885544719661913e-01 2.2173249791008662e-01  0.0000000000000000e+00 6.3877734023556398e-01 2.2171162052108409e-01  0.0000000000000000e+00 6.3862000665168062e-01 2.2167037276085186e-01  0.0000000000000000e+00 6.3840765363928853e-01 2.2161479185989194e-01  0.0000000000000000e+00 6.3814806218680542e-01 2.2154675161168869e-01  0.0000000000000000e+00 6.3778279531433568e-01 2.2145198803159816e-01  0.0000000000000000e+00 6.3734947598619451e-01 2.2133986225844701e-01  0.0000000000000000e+00 6.3690301521104020e-01 2.2122393605129978e-01  0.0000000000000000e+00 6.3638287296120588e-01 2.2108963849979718e-01  0.0000000000000000e+00 6.3576813471081262e-01 2.2093201210257152e-01  0.0000000000000000e+00 6.3504850929318124e-01 2.2074886817699255e-01  0.0000000000000000e+00 6.3432055073773130e-01 2.2056362118282458e-01  0.0000000000000000e+00 6.3352785121295674e-01 2.2036291647908846e-01  0.0000000000000000e+00 6.3260781021002432e-01 2.2013224109726268e-01  0.0000000000000000e+00 6.3166088972955348e-01 2.1989567369701360e-01  0.0000000000000000e+00 6.3062732808113708e-01 2.1963945447921124e-01  0.0000000000000000e+00 6.2951578342417236e-01 2.1936604125315037e-01  0.0000000000000000e+00 6.2835741967912950e-01 2.1908285597062960e-01  0.0000000000000000e+00 6.2707283471303821e-01 2.1877205163594096e-01  0.0000000000000000e+00 6.2572699206120763e-01 2.1844906900011363e-01  0.0000000000000000e+00 6.2434745012141435e-01 2.1812024724987614e-01  0.0000000000000000e+00 6.2284983026133944e-01 2.1776716537703553e-01  0.0000000000000000e+00 6.2123310599648296e-01 2.1739036875327594e-01  0.0000000000000000e+00 6.1957222032025805e-01 2.1700681155520810e-01  0.0000000000000000e+00 6.1787113458107812e-01 2.1661761123303713e-01  0.0000000000000000e+00 6.1605330702889227e-01 2.1620675276725132e-01  0.0000000000000000e+00 6.1412027954977100e-01 2.1577520441855808e-01  0.0000000000000000e+00 6.1213223714489995e-01 2.1533635223059189e-01  0.0000000000000000e+00 6.1004784948990010e-01 2.1488199286398232e-01  0.0000000000000000e+00 6.0787847793477945e-01 2.1441501331631768e-01  0.0000000000000000e+00 6.0563204890601030e-01 2.1393760790502189e-01  0.0000000000000000e+00 6.0331607582997371e-01 2.1345182692623310e-01  0.0000000000000000e+00 6.0086370445270154e-01 2.1294505490988627e-01  0.0000000000000000e+00 5.9834755057060596e-01 2.1243206178052837e-01  0.0000000000000000e+00 5.9575339319430975e-01 2.1191073416572584e-01  0.0000000000000000e+00 5.9307081536130324e-01 2.1137935219135176e-01  0.0000000000000000e+00 5.9031508805090938e-01 2.1084151501095660e-01  0.0000000000000000e+00 5.8744673428541538e-01 2.1029043957955723e-01  0.0000000000000000e+00 5.8450481309427216e-01 2.0973380823940793e-01  0.0000000000000000e+00 5.8149663016926978e-01 2.0917345463404335e-01  0.0000000000000000e+00 5.7838909873013222e-01 2.0860382322649043e-01  0.0000000000000000e+00 5.7520690346626857e-01 2.0803003518938704e-01  0.0000000000000000e+00 5.7195573099551245e-01 2.0745272921740532e-01  0.0000000000000000e+00 5.6867695109272398e-01 2.0687907008628009e-01  0.0000000000000000e+00 5.6168804199802591e-01 2.0569194681149325e-01  0.0000000000000000e+00 5.5814151582072480e-01 2.0510413005715888e-01  0.0000000000000000e+00 5.5454358116922542e-01 2.0451794928069481e-01  0.0000000000000000e+00 5.5084055044542346e-01 2.0392489479326745e-01  0.0000000000000000e+00 5.4708943208611338e-01 2.0333536580302647e-01  0.0000000000000000e+00 5.4327817951951607e-01 2.0274609138460573e-01  0.0000000000000000e+00 5.3941337864010375e-01 2.0215988458670803e-01  0.0000000000000000e+00 5.3549317095680815e-01 2.0157561498571538e-01  0.0000000000000000e+00 5.3152985807519337e-01 2.0099569209134285e-01  0.0000000000000000e+00 5.2752824474246096e-01 2.0042085567189871e-01  0.0000000000000000e+00 5.2347107563123629e-01 1.9984852188550722e-01  0.0000000000000000e+00 5.1939864785988321e-01 1.9928489233284585e-01  0.0000000000000000e+00 5.1528256847990639e-01 1.9872542378855590e-01  0.0000000000000000e+00 5.1113917660654395e-01 1.9817287149999646e-01  0.0000000000000000e+00 5.0697369126061254e-01 1.9762767781111595e-01  0.0000000000000000e+00 5.0279457357863155e-01 1.9709109855424858e-01  0.0000000000000000e+00 4.9860350114132101e-01 1.9656301505924559e-01  0.0000000000000000e+00 4.9440401008584606e-01 1.9604394003850770e-01  0.0000000000000000e+00 4.9020018277437094e-01 1.9553418707042383e-01  0.0000000000000000e+00 4.8600210042905712e-01 1.9503483855019293e-01  0.0000000000000000e+00 4.8180586367530859e-01 1.9454516647715547e-01  0.0000000000000000e+00 4.7763298215406585e-01 1.9406782112377921e-01  0.0000000000000000e+00 4.7346469720002704e-01 1.9360016497248014e-01  0.0000000000000000e+00 4.6933387675272381e-01 1.9314564646147894e-01  0.0000000000000000e+00 4.6522663412435289e-01 1.9270251716694831e-01  0.0000000000000000e+00 4.6115169418665136e-01 1.9227147602123851e-01  0.0000000000000000e+00 4.5711338210196861e-01 1.9185263293028307e-01  0.0000000000000000e+00 4.5311775426793938e-01 1.9144649187174795e-01  0.0000000000000000e+00 4.4917676250438549e-01 1.9105353681437426e-01  0.0000000000000000e+00 4.4528402841600279e-01 1.9067326441640753e-01  0.0000000000000000e+00 4.4145115729501555e-01 1.9030612863874524e-01  0.0000000000000000e+00 4.3768068097874757e-01 1.8995211430961517e-01  0.0000000000000000e+00 4.3396317998803086e-01 1.8961025010802587e-01  0.0000000000000000e+00 4.3032811215521083e-01 1.8928233495308960e-01  0.0000000000000000e+00 4.2679539832677893e-01 1.8896978940362946e-01  0.0000000000000000e+00 4.2330871368885353e-01 1.8866768193659808e-01  0.0000000000000000e+00 4.1989764353517106e-01 1.8837801398076526e-01  0.0000000000000000e+00 4.1661507367689704e-01 1.8810447606871275e-01  0.0000000000000000e+00 4.1338920738945634e-01 1.8784108014200168e-01  0.0000000000000000e+00 4.1022978047412068e-01 1.8758829696524787e-01  0.0000000000000000e+00 4.0723040256838750e-01 1.8735236705294445e-01  0.0000000000000000e+00 4.0430880753384241e-01 1.8712765195670636e-01  0.0000000000000000e+00 4.0149733912693347e-01 1.8691496228510421e-01  0.0000000000000000e+00 3.9877956067709464e-01 1.8671339753034852e-01  0.0000000000000000e+00 3.9617559451641843e-01 1.8652371471230469e-01  0.0000000000000000e+00 3.9367734415257766e-01 1.8634513581099407e-01  0.0000000000000000e+00 3.9129717086706867e-01 1.8617793085406900e-01  0.0000000000000000e+00 3.8904186107662314e-01 1.8602214630794525e-01  0.0000000000000000e+00 3.8688930518026154e-01 1.8587609832599797e-01  0.0000000000000000e+00 3.8484384666317523e-01 1.8573951421367835e-01  0.0000000000000000e+00 3.8292883351828172e-01 1.8561348070966369e-01  0.0000000000000000e+00 3.8115239942306739e-01 1.8549827337003832e-01  0.0000000000000000e+00 3.7951246910256498e-01 1.8539335217715458e-01  0.0000000000000000e+00 3.7797222133500569e-01 1.8529634417409169e-01  0.0000000000000000e+00 3.7657393812727885e-01 1.8520920569124483e-01  0.0000000000000000e+00 3.7529345993843755e-01 1.8513045911220927e-01  0.0000000000000000e+00 3.7320379582115121e-01 1.8500357227105974e-01  0.0000000000000000e+00 3.7212310141767563e-01 1.8493977418018986e-01  0.0000000000000000e+00 3.7147975185761056e-01 1.8490092914001408e-01  0.0000000000000000e+00 3.7085066748325113e-01 1.8486379215001553e-01  0.0000000000000000e+00 3.7033524470798862e-01 1.8483358715198175e-01  0.0000000000000000e+00 3.6997202118506667e-01 1.8481241482902488e-01  0.0000000000000000e+00 3.6975528001308466e-01 1.8479954801931400e-01  0.0000000000000000e+00 3.6964759752052834e-01 1.8479324590601065e-01  0.0000000000000000e+00 3.6968089650118974e-01 1.8479500660032824e-01  0.0000000000000000e+00 3.6972306507147301e-01 1.8479823406395468e-01  0.0000000000000000e+00 3.7007761135113509e-01 1.8481824728465499e-01  0.0000000000000000e+00 3.7050506347996193e-01 1.8484304169296228e-01  0.0000000000000000e+00 3.7105680714843925e-01 1.8487540136572644e-01  0.0000000000000000e+00 3.7168886663951822e-01 1.8491275562985016e-01  0.0000000000000000e+00 3.7246991636220178e-01 1.8495914352656534e-01  0.0000000000000000e+00 3.7342437095200293e-01 1.8501610593348525e-01  0.0000000000000000e+00 3.7447153134064110e-01 1.8507942600053659e-01  0.0000000000000000e+00 3.7563768361113586e-01 1.8515057608515911e-01  0.0000000000000000e+00 3.7691947946360777e-01 1.8522960281397335e-01  0.0000000000000000e+00 3.7832237287633202e-01 1.8531714222833992e-01  0.0000000000000000e+00 3.7986324307744851e-01 1.8541452497742134e-01  0.0000000000000000e+00 3.8153364700841685e-01 1.8552140963131838e-01  0.0000000000000000e+00 3.8330167971106294e-01 1.8563621362677496e-01  0.0000000000000000e+00 3.8517541915414932e-01 1.8575975152620311e-01  0.0000000000000000e+00 3.8716610859594591e-01 1.8589299613882337e-01  0.0000000000000000e+00 3.8926823984911024e-01 1.8603598574918420e-01  0.0000000000000000e+00 3.9148309605841852e-01 1.8618908813694243e-01  0.0000000000000000e+00 3.9380318646789025e-01 1.8635222696957288e-01  0.0000000000000000e+00 3.9623110773360043e-01 1.8652589876936473e-01  0.0000000000000000e+00 3.9876123858602602e-01 1.8671010117946013e-01  0.0000000000000000e+00 4.0139173749718693e-01 1.8690507221663263e-01  0.0000000000000000e+00 4.0410860269833898e-01 1.8711018315738462e-01  0.0000000000000000e+00 4.0691333848936662e-01 1.8732578036373848e-01  0.0000000000000000e+00 4.0980532865668984e-01 1.8755250237698468e-01  0.0000000000000000e+00 4.1280462962981618e-01 1.8779178195513976e-01  0.0000000000000000e+00 4.1588657111900607e-01 1.8804240468105390e-01  0.0000000000000000e+00 4.1904689954329249e-01 1.8830431886284646e-01  0.0000000000000000e+00 4.2227865134650866e-01 1.8857731438466302e-01  0.0000000000000000e+00 4.2557780941171230e-01 1.8886134699199758e-01  0.0000000000000000e+00 4.2893451132617710e-01 1.8915605639697036e-01  0.0000000000000000e+00 4.3239679497458244e-01 1.8946570487500211e-01  0.0000000000000000e+00 4.3590734918825536e-01 1.8978567774695543e-01  0.0000000000000000e+00 4.3944371963673495e-01 1.9011464171404224e-01  0.0000000000000000e+00 4.4305841048219907e-01 1.9045690264382475e-01  0.0000000000000000e+00 4.4673162303001129e-01 1.9081148704708659e-01  0.0000000000000000e+00 4.5045228669666837e-01 1.9117750730497621e-01  0.0000000000000000e+00 4.5417522864635496e-01 1.9155092591305381e-01  0.0000000000000000e+00 4.5798486120300408e-01 1.9193994347943288e-01  0.0000000000000000e+00 4.6180594789139906e-01 1.9233800344814292e-01  0.0000000000000000e+00 4.6565611228400222e-01 1.9274586906407040e-01  0.0000000000000000e+00 4.6951581801370268e-01 1.9316347446179219e-01  0.0000000000000000e+00 4.7341665950219031e-01 1.9359261113891621e-01  0.0000000000000000e+00 4.7733320726892481e-01 1.9403181968646424e-01  0.0000000000000000e+00 4.8125466188868732e-01 1.9447962663050544e-01  0.0000000000000000e+00 4.8518151644416069e-01 1.9493638137488556e-01  0.0000000000000000e+00 4.8910714604922761e-01 1.9540122478618380e-01  0.0000000000000000e+00 4.9696455315265353e-01 1.9635747546695737e-01  0.0000000000000000e+00 5.0087448830493142e-01 1.9684607731795675e-01  0.0000000000000000e+00 5.0477510786516167e-01 1.9734247846493694e-01  0.0000000000000000e+00 5.0865606930999607e-01 1.9784502201036638e-01  0.0000000000000000e+00 5.1251477308850069e-01 1.9835363272376066e-01  0.0000000000000000e+00 5.1634935498908274e-01 1.9886793068307820e-01  0.0000000000000000e+00 5.2015465403380767e-01 1.9938728609042361e-01  0.0000000000000000e+00 5.2392689601636588e-01 1.9991104775144630e-01  0.0000000000000000e+00 5.2766347579541895e-01 2.0043887957143808e-01  0.0000000000000000e+00 5.3136038523954654e-01 2.0097000356395225e-01  0.0000000000000000e+00 5.3501360997554148e-01 2.0150399687741011e-01  0.0000000000000000e+00 5.3861207103620057e-01 2.0203874456347884e-01  0.0000000000000000e+00 5.4217170902542111e-01 2.0257661107568586e-01  0.0000000000000000e+00 5.4568393308195395e-01 2.0311620896575189e-01  0.0000000000000000e+00 5.4912501203233777e-01 2.0365358947189294e-01  0.0000000000000000e+00 5.5254370391870666e-01 2.0419612136021403e-01  0.0000000000000000e+00 5.5590312409447140e-01 2.0473797240326810e-01  0.0000000000000000e+00 5.5916763224279331e-01 2.0527301931809053e-01  0.0000000000000000e+00 5.6238725528565503e-01 2.0580941048260645e-01  0.0000000000000000e+00 5.6554049864313582e-01 2.0634258220504251e-01  0.0000000000000000e+00 5.6863369743369607e-01 2.0687395594729313e-01  0.0000000000000000e+00 5.7166035319330721e-01 2.0740184535378114e-01  0.0000000000000000e+00 5.7462488746820872e-01 2.0792668521577937e-01  0.0000000000000000e+00 5.7752921452369432e-01 2.0844863283126666e-01  0.0000000000000000e+00 5.8034337103999245e-01 2.0896207096536573e-01  0.0000000000000000e+00 5.8309669910211426e-01 2.0947162528379620e-01  0.0000000000000000e+00 5.8579447852148159e-01 2.0997795796299507e-01  0.0000000000000000e+00 5.8839127955309012e-01 2.1047252807078401e-01  0.0000000000000000e+00 5.9094144528566217e-01 2.1096488311747244e-01  0.0000000000000000e+00 5.9341732063974850e-01 2.1144935472228207e-01  0.0000000000000000e+00 5.9581539566602215e-01 2.1192505832589881e-01  0.0000000000000000e+00 5.9814391683712287e-01 2.1239302168064669e-01  0.0000000000000000e+00 6.0040005472240110e-01 2.1285234941577921e-01  0.0000000000000000e+00 6.0259351434091368e-01 2.1330457706317818e-01  0.0000000000000000e+00 6.0473488556534427e-01 2.1375137600118826e-01  0.0000000000000000e+00 6.0676975439962022e-01 2.1418148453550290e-01  0.0000000000000000e+00 6.0872991998390802e-01 2.1460075172125259e-01  0.0000000000000000e+00 6.1067259702986376e-01 2.1502053612686414e-01  0.0000000000000000e+00 6.1251892998727009e-01 2.1542439041553305e-01  0.0000000000000000e+00 6.1427966564927017e-01 2.1581398777558494e-01  0.0000000000000000e+00 6.1599085614343474e-01 2.1619641242273177e-01  0.0000000000000000e+00 6.1762950958309182e-01 2.1656647343550559e-01  0.0000000000000000e+00 6.1922214669426590e-01 2.1692958316797584e-01  0.0000000000000000e+00 6.2071411212164174e-01 2.1727339984288616e-01  0.0000000000000000e+00 6.2216941948630822e-01 2.1761165516754183e-01  0.0000000000000000e+00 6.2354864968248580e-01 2.1793525204916919e-01  0.0000000000000000e+00 6.2487367867761090e-01 2.1824876406613786e-01  0.0000000000000000e+00 6.2615173420173253e-01 2.1855364969596172e-01  0.0000000000000000e+00 6.2733776931809848e-01 2.1883931849588800e-01  0.0000000000000000e+00 6.2845731428726970e-01 2.1911099822140559e-01  0.0000000000000000e+00 6.2955171480097105e-01 2.1937809222364404e-01  0.0000000000000000e+00 6.3056671780371931e-01 2.1962782369141629e-01  0.0000000000000000e+00 6.3151072073714398e-01 2.1986178281001834e-01  0.0000000000000000e+00 6.3240718518843642e-01 2.2008515059026007e-01  0.0000000000000000e+00 6.3325134252870097e-01 2.2029662791054072e-01  0.0000000000000000e+00 6.3402107816286812e-01 2.2049073076329984e-01  0.0000000000000000e+00 6.1804435254564627e-01 2.1666636588413821e-01  0.0000000000000000e+00 4.3732423791996794e-01 1.8991482352444986e-01  0.0000000000000000e+00 6.2723130764838120e-01 2.1881572930645474e-01  0.0000000000000000e+00 4.9109854153648297e-01 1.9564029669637970e-01  0.0000000000000000e+00 6.3393810981480281e-01 2.2047629384142867e-01  0.0000000000000000e+00 4.0058564361331506e-01 1.8684329893839463e-01  0.0000000000000000e+00 6.0405687061827162e-01 2.1361192991502762e-01  0.0000000000000000e+00 5.6318723772387480e-01 2.0594590944174584e-01  0.0000000000000000e+00 3.7422535820944774e-01 1.8506045369527777e-01  0.0000000000000000e+00 4.4740179284298370e-01 1.9087729506321402e-01  0.0000000000000000e+00 6.0112602476889887e-01 2.1300526782959017e-01  0.0000000000000000e+00 4.0316216370142949e-01 1.8703505110505572e-01  0.0000000000000000e+00 4.2844804255438668e-01 1.8911284320501828e-01  0.0000000000000000e+00 5.8687466867259097e-01 2.1018668944084401e-01  0.0000000000000000e+00 4.7557318798181242e-01 1.9383476394394128e-01  0.0000000000000000e+00 6.3352672681609146e-01 2.2036920716014788e-01  0.0000000000000000e+00 3.8653328273616794e-01 1.8584666121477211e-01  0.0000000000000000e+00 3.7556372619745598e-01 1.8514180814415870e-01  0.0000000000000000e+00 6.3745802693873876e-01 2.2137508968624425e-01  0.0000000000000000e+00 5.6704595819668369e-01 2.0660317349469781e-01  0.0000000000000000e+00 5.0057568153862320e-01 1.9681044591509750e-01  0.0000000000000000e+00 5.4374638461409552e-01 2.0281924411805244e-01  0.0000000000000000e+00 6.3837806400019370e-01 2.2161431035736612e-01  0.0000000000000000e+00 3.7093512685248053e-01 1.8486324262094639e-01  0.0000000000000000e+00 5.2494185507550573e-01 2.0005601043056234e-01  0.0000000000000000e+00 5.2565520520428610e-01 2.0015577623422023e-01  0.0000000000000000e+00 6.3804332309964062e-01 2.2152849106942149e-01  0.0000000000000000e+00 6.2630820884056226e-01 2.1859800174281879e-01  0.0000000000000000e+00 4.6004725612415104e-01 1.9215272864876992e-01  0.0000000000000000e+00 3.8638384445485696e-01 1.8583790024774077e-01  0.0000000000000000e+00 5.8851969173094565e-01 2.1049980987513195e-01  0.0000000000000000e+00 6.1864106096781801e-01 2.1679858173487160e-01  0.0000000000000000e+00 3.7032839417461461e-01 1.8482894664179639e-01  0.0000000000000000e+00 5.4090257696287736e-01 2.0238641297778470e-01  0.0000000000000000e+00 5.1052597236560238e-01 1.9809109746990500e-01  0.0000000000000000e+00 6.3682538943222555e-01 2.2121292109217586e-01  0.0000000000000000e+00 4.1541911886683541e-01 1.8800377180755257e-01  0.0000000000000000e+00 4.2096958627519354e-01 1.8846371413285512e-01  0.0000000000000000e+00 6.3061769296620829e-01 2.1964694427039977e-01  0.0000000000000000e+00 6.1114695649767115e-01 2.1512930659062585e-01  0.0000000000000000e+00 4.7588679440503329e-01 1.9386787870772854e-01  0.0000000000000000e+00 3.7940584019924128e-01 1.8538214610153927e-01  0.0000000000000000e+00 5.7682931347575062e-01 2.0832523029206676e-01  0.0000000000000000e+00 6.3543273589952509e-01 2.2085571608546636e-01  0.0000000000000000e+00 5.9661449573859882e-01 2.1208849176909014e-01  0.0000000000000000e+00 3.7158106726263873e-01 1.8490303890313267e-01  0.0000000000000000e+00 3.9297912314606709e-01 1.8629200018659484e-01  0.0000000000000000e+00 5.5237674118372382e-01 2.0417257625750126e-01  0.0000000000000000e+00 4.5912488471737839e-01 1.9205874014685270e-01  0.0000000000000000e+00 6.2244849356869558e-01 2.1768349058440406e-01  0.0000000000000000e+00 6.2304124519019510e-01 2.1781937168839788e-01  0.0000000000000000e+00 5.7875447437605232e-01 2.0867542283649188e-01  0.0000000000000000e+00 3.8122071367239180e-01 1.8549700197346133e-01  0.0000000000000000e+00 5.5753987097201341e-01 2.0500760583375527e-01  0.0000000000000000e+00 4.4879574690149443e-01 1.9101215081995859e-01  0.0000000000000000e+00 6.1270351728817818e-01 2.1546749435503243e-01  0.0000000000