<?xml version="1.0"?>
<VTKFile type="UnstructuredGrid"  version="0.1"  >
<UnstructuredGrid>
<Piece  NumberOfPoints="4940" NumberOfCells="9650">
<Points>
<DataArray  type="Float64"  NumberOfComponents="3"  format="ascii">500 250 0  0 250 0  250 500 0  250 0 0  256.8885856082646 499.9050767557906 0  263.7719401218049 499.6203791065173 0  270.6448364229772 499.1461232471188 0  277.5020553257866 498.4826693209355 0  284.3383895508592 497.6305211460281 0  291.1486476865662 496.5903258312597 0  297.9276581259182 495.3628732847843 0  304.6702729675493 493.9490956196674 0  311.3713719748657 492.3500664368026 0  318.0258664141369 490.5670000199653 0  324.6287029687753 488.6012504015818 0  331.1748675330201 486.4543103455647 0  337.6593890460416 484.1278102064655 0  344.0773432429536 481.6235166997244 0  350.4238564271474 478.9433315480048 0  356.694109139292 476.0892900492477 0  362.88333985546 473.0635595140469 0  368.9868485575419 469.8684376402048 0  375.0000003153078 466.5063507640667 0  380.9182288257928 462.9798520074548 0  386.7370398729688 459.2916193419558 0  392.4520147244077 455.444453565817 0  398.0588135356345 451.4412761437442 0  403.5531785622926 447.285127045646 0  408.9309374414144 442.9791624087773 0  414.1880064015299 438.5266521049243 0  419.3203932989752 433.9309773069245 0  424.324200661095 429.1956279150535 0  429.1956286596235 424.3241998957182 0  433.9309780058756 419.3203925397119 0  438.5266527445345 414.1880056671062 0  442.9791630130591 408.9309367076756 0  447.2851276060475 403.5531778422888 0  451.4412766621026 398.0588128303826 0  455.4444540361634 392.4520140460735 0  459.2916197786263 386.7370392045948 0  462.9798524073514 380.9182281752347 0  466.5063511234856 374.9999996927758 0  469.8684379657123 368.9868479560565 0  473.0635598144817 362.8833392617846 0  476.0892903190255 356.6941085676214 0  478.9433317963513 350.4238558609745 0  481.6235169154735 344.0773427117675 0  484.12781039012 337.6593885555221 0  486.4543105028062 331.1748670749914 0  488.601250531677 324.6287025528375 0  490.5670001317469 318.0258660188321 0  492.3500665291326 311.3713716102628 0  493.949095695951 304.6702726271575 0  495.3628733416623 297.9276578347343 0  496.5903258712341 291.1486474470129 0  497.6305211749058 284.3383893426084 0  498.4826693388848 277.502055163614 0  499.1461232580606 270.6448362909296 0  499.6203791109319 263.7719400417897 0  499.9050767571306 256.8885855596534 0  499.9050767559877 243.1114143988867 0  499.6203791069493 236.2280598860241 0  499.1461232485393 229.3551635941651 0  498.4826693235677 222.4979446979962 0  497.6305211491849 215.6616104719064 0  496.5903258357701 208.8513523404629 0  495.3628732906988 202.0723419043604 0  493.9490956264813 195.3297270628552 0  492.3500664487791 188.6286280724281 0  490.5670000344809 181.9741336371959 0  488.6012504175981 175.3712970824318 0  486.4543103623226 168.8251325157939 0  484.1278102222298 162.3406109960628 0  481.6235167152198 155.9226567951971 0  478.9433315621651 149.5761436051346 0  476.0892900516498 143.3058908657982 0  473.063559513628 137.1166601437124 0  469.8684376406648 131.0131514433083 0  466.5063507675389 124.9999996907064 0  462.9798520124137 119.0817711822745 0  459.2916193464549 113.2629601339176 0  455.4444535642773 107.5479852733717 0  451.4412761528674 101.9411864767781 0  447.2851270583545 96.44682145403524 0  442.9791624165781 91.06906256805769 0  438.5266521117469 85.81199360630404 0  433.9309773156125 80.67960671046254 0  429.1956279150353 75.67579933888632 0  424.3241998888952 70.80437133373906 0  419.3203925223282 66.06902197812161 0  414.1880056411937 61.47334723289828 0  408.9309366751728 57.0208369601728 0  403.5531778009394 52.71487236176898 0  398.058812796452 48.55872331295853 0  392.4520140187753 44.55554594490843 0  386.7370391799677 40.70838020528396 0  380.9182281475119 37.02014757560744 0  374.9999996718656 33.49364886444181 0  368.9868479340393 30.13156202237255 0  362.8833392380029 26.93644017348339 0  356.6941085456942 23.91070967062674 0  350.4238558420009 21.0566681953261 0  344.0773426899492 18.37648307566465 0  337.6593885328982 15.87218960140942 0  331.1748670549786 13.54568949032341 0  324.6287025315056 11.39874946165088 0  318.0258660010876 9.432999863235466 0  311.3713716017894 7.649933468721599 0  304.6702726190621 6.050904302234756 0  297.9276578269805 4.637126656823085 0  291.148647441857 3.409674127905504 0  284.3383893425031 2.369478825079682 0  277.502055159398 1.517330660648639 0  270.6448362875833 0.853876741662134 0  263.7719400401456 0.3796208889774277 0  256.8885855592052 0.09492324285704967 0  243.1114143979462 0.09492324403817065 0  236.2280598850882 0.3796208931023841 0  229.3551635938215 0.8538767514891958 0  222.4979446968584 1.517330676558146 0  215.6616104703111 2.369478851036291 0  208.8513523382973 3.409674164591252 0  202.0723419066374 4.637126708856528 0  195.3297270659513 6.050904372824903 0  188.628628074828 7.649933550613184 0  181.9741336377093 9.432999965373938 0  175.3712970793675 11.39874958336037 0  168.8251325057572 13.54568964112298 0  162.340610986655 15.87218978129263 0  155.9226567874317 18.37648328793418 0  149.576143602509 21.05666843898663 0  143.3058908718157 23.91070994551046 0  137.1166601505524 26.93644048291054 0  131.0131514451933 30.13156235831508 0  124.9999996848412 33.49364923584736 0  119.0817711715717 37.0201479941652 0  113.2629601211624 40.70838066187849 0  107.5479852622251 44.55554644345162 0  101.9411864693332 48.55872385260452 0  96.44682143286516 52.71487295812284 0  91.06906254351222 57.02083760363669 0  85.81199358272519 61.4733479087879 0  80.67960667988106 66.06902271253972 0  75.67579930062769 70.80437212218331 0  70.80437129287643 75.67580015310926 0  66.06902193673014 80.67960752263491 0  61.47334718684866 85.81199441168215 0  57.02083692524275 91.0690633672404 0  52.71487232786438 96.44682224262129 0  48.55872328070024 101.941187247437 0  44.55554591578033 107.5479860232332 0  40.7083801742321 113.2629608675606 0  37.02014754791168 119.0817718975441 0  33.49364883372994 125.000000381329 0  30.13156199866361 131.0131521097709 0  26.9364401549829 137.1166607985551 0  23.91070965524918 143.3058914868915 0  21.05666818346614 149.576144185037 0  18.37648306853811 155.9226573275967 0  15.8721895918909 162.3406114925245 0  13.54568948170046 168.8251329701392 0  11.39874945301878 175.3712974960928 0  9.432999857087736 181.9741340206533 0  7.649933466342702 188.6286284076045 0  6.050904301250966 195.3297273853278 0  4.637126656808988 202.0723421730917 0  3.409674127767772 208.8513525589684 0  2.369478824521138 215.6616106615248 0  1.517330660909465 222.4979448382452 0  0.8538767414496533 229.355163714981 0  0.3796208887135322 236.2280599646376 0  0.09492324266324204 243.1114144478261 0  0.0949232442452228 256.8885856095658 0  0.3796208935834784 263.7719401236316 0  0.8538767530323526 270.6448364248016 0  1.517330679476544 277.5020553295092 0  2.369478854618649 284.3383895555228 0  3.409674170191892 291.1486476952655 0  4.6371267162381 297.9276581311522 0  6.050904381420935 304.6702729724059 0  7.649933562385399 311.3713719716595 0  9.43299997979841 318.0258664133013 0  11.3987495994252 324.6287029719946 0  13.54568965885832 331.174867545904 0  15.87218979367188 337.6593890464085 0  18.37648329843151 344.0773432384132 0  21.05666844777872 350.423856417535 0  23.91070995156048 356.6941091410045 0  26.93644048988043 362.8833398632205 0  30.13156235982007 368.9868485575877 0  33.49364924138357 375.0000003247478 0  37.0201480006036 380.9182288389023 0  40.70838066758398 386.7370398875706 0  44.55554644477201 392.4520147396792 0  48.55872386086904 398.0588135419111 0  52.71487295981296 403.5531785693063 0  57.02083760525949 408.9309374584583 0  61.47334790862246 414.1880064170849 0  66.06902271205095 419.320393319588 0  70.80437211216579 424.3242006890749 0  75.67580013809859 429.195628692521 0  80.6796075127923 433.930978054209 0  85.81199439754931 438.5266528008431 0  91.06906334717917 442.9791630582355 0  96.44682221438322 447.2851276501571 0  101.9411872243843 451.441276702356 0  107.5479859945825 455.4444540643537 0  113.2629608446994 459.2916198108319 0  119.0817718768376 462.9798524393601 0  125.0000003647644 466.5063511567065 0  131.0131521012763 469.8684379967393 0  137.1166607840049 473.0635598376539 0  143.3058914748804 476.0892903390826 0  149.5761441732679 478.9433318113714 0  155.9226573130112 481.6235169255377 0  162.3406114779862 484.1278104026658 0  168.8251329570439 486.4543105138039 0  175.3712974805475 488.601250542119 0  181.9741340135204 490.5670001408953 0  188.6286284005059 492.3500665318597 0  195.3297273788229 493.9490956972913 0  202.0723421640089 495.3628733414168 0  208.8513525529672 496.5903258712308 0  215.6616106544547 497.6305211744985 0  222.4979448327038 498.4826693384772 0  229.3551637102845 499.1461232581612 0  236.2280599621369 499.6203791111485 0  243.1114144470173 499.9050767573145 0  155.2373389820306 474.8197567317462 0  25.36256300907667 153.9152755065208 0  432.3709625126712 412.6214396304305 0  6.013151705810699 246.637913163471 0  246.6379131630491 493.986848294322 0  338.6995838441862 22.68244767887072 0  477.3175523131281 338.6995838660569 0  493.9868482700757 246.6379131399102 0  246.6201155078769 6.218451882810491 0  417.6179310263282 72.7156044707053 0  102.2232990934413 445.0100869616822 0  63.66330858966404 92.20354579482142 0  391.3105220491464 50.73522820883105 0  72.79295043967942 418.0702734974704 0  448.290574428537 108.25674339002 0  402.4604651193511 440.7462829841712 0  97.55317348421397 59.11376320116034 0  136.7376477664901 33.58246472647134 0  363.3288394375288 465.6947312928271 0  44.0678766556007 381.0860953771871 0  469.6905266180034 142.3890690100806 0  22.68244791668644 338.6995843487432 0  338.699584349159 477.317552078365 0  173.389488083762 18.6681884918202 0  483.4809734778481 179.7121987795732 0  13.50237455842738 306.4709525540879 0  305.9825168523021 487.24416992
[...]
<PointData  Vectors="f_12"> 
<DataArray  type="Float64"  Name="f_12"  NumberOfComponents="3" format="ascii">0.0000000000000000e+00 8.7742124851866266e-01 2.2264751978075104e-01  0.0000000000000000e+00 5.0343846354194244e-01 7.4608563012760254e-01  0.0000000000000000e+00 9.1891006025958732e-01 1.2432211050604711e-01  0.0000000000000000e+00 1.0005010068030437e-01 1.7512593770087800e-01  0.0000000000000000e+00 9.1895933970167487e-01 1.2342790649858028e-01  0.0000000000000000e+00 9.1898399908736217e-01 1.2266470847179974e-01  0.0000000000000000e+00 9.1900038232710834e-01 1.2190851159869734e-01  0.0000000000000000e+00 9.1900260977126713e-01 1.2126008441238491e-01  0.0000000000000000e+00 9.1899601519984986e-01 1.2067200926150783e-01  0.0000000000000000e+00 9.1898452269988762e-01 1.2014823107123332e-01  0.0000000000000000e+00 9.1896943930653441e-01 1.1968697748387765e-01  0.0000000000000000e+00 9.1895231208577521e-01 1.1927691392028186e-01  0.0000000000000000e+00 9.1893483433806289e-01 1.1892803625665342e-01  0.0000000000000000e+00 9.1891841162652454e-01 1.1864539741807228e-01  0.0000000000000000e+00 9.1890488335513754e-01 1.1850100289799825e-01  0.0000000000000000e+00 9.1889517778990137e-01 1.1825904465003996e-01  0.0000000000000000e+00 9.1889124281947576e-01 1.1828062194554058e-01  0.0000000000000000e+00 9.1889025323453033e-01 1.1823623283986275e-01  0.0000000000000000e+00 9.1889356164111802e-01 1.1828155470981719e-01  0.0000000000000000e+00 9.1890257139614284e-01 1.1837187829207864e-01  0.0000000000000000e+00 9.1891698045724657e-01 1.1849434230303207e-01  0.0000000000000000e+00 9.1893184932337246e-01 1.1875187253074063e-01  0.0000000000000000e+00 9.1894808292448593e-01 1.1908115821940518e-01  0.0000000000000000e+00 9.1896834259794746e-01 1.1938115726407864e-01  0.0000000000000000e+00 9.1898894894353700e-01 1.1975336046378114e-01  0.0000000000000000e+00 9.1900401774233509e-01 1.2023449370173946e-01  0.0000000000000000e+00 9.1901178854985821e-01 1.2084203305986201e-01  0.0000000000000000e+00 9.1901865572664265e-01 1.2141372891324641e-01  0.0000000000000000e+00 9.1901823234756175e-01 1.2203977764144934e-01  0.0000000000000000e+00 9.1899793840856780e-01 1.2283325957316021e-01  0.0000000000000000e+00 9.1896937216203578e-01 1.2362000996105708e-01  0.0000000000000000e+00 9.1891962060357890e-01 1.2450074729875575e-01  0.0000000000000000e+00 9.1884809843138238e-01 1.2546435542974665e-01  0.0000000000000000e+00 9.1876048430839141e-01 1.2645129021347903e-01  0.0000000000000000e+00 9.1862765194207441e-01 1.2761610471355944e-01  0.0000000000000000e+00 9.1846693958501613e-01 1.2883596312832216e-01  0.0000000000000000e+00 9.1829157284862195e-01 1.3004532334153474e-01  0.0000000000000000e+00 9.1805419388775522e-01 1.3143923233611249e-01  0.0000000000000000e+00 9.1774112146010001e-01 1.3303643093425274e-01  0.0000000000000000e+00 9.1739492109618637e-01 1.3465772804650303e-01  0.0000000000000000e+00 9.1702031381845994e-01 1.3628618945197307e-01  0.0000000000000000e+00 9.1655639010441525e-01 1.3811877701668229e-01  0.0000000000000000e+00 9.1599401354161236e-01 1.4016889435919125e-01  0.0000000000000000e+00 9.1536885485039232e-01 1.4229622832318919e-01  0.0000000000000000e+00 9.1463518770933228e-01 1.4462304283614291e-01  0.0000000000000000e+00 9.1380810230430098e-01 1.4710277780789283e-01  0.0000000000000000e+00 9.1287907983894068e-01 1.4974036249902364e-01  0.0000000000000000e+00 9.1184535491852159e-01 1.5253395108281093e-01  0.0000000000000000e+00 9.1061106563719540e-01 1.5569910932761899e-01  0.0000000000000000e+00 9.0924898208500049e-01 1.5905261071840660e-01  0.0000000000000000e+00 9.0772342623058244e-01 1.6265380126662479e-01  0.0000000000000000e+00 9.0600130665830547e-01 1.6658163149894994e-01  0.0000000000000000e+00 9.0410315832998334e-01 1.7076704308108731e-01  0.0000000000000000e+00 9.0190158533589970e-01 1.7547132318318964e-01  0.0000000000000000e+00 8.9947230480826212e-01 1.8052129232130068e-01  0.0000000000000000e+00 8.9681288987112895e-01 1.8591332469494684e-01  0.0000000000000000e+00 8.9378547919694951e-01 1.9190552690890830e-01  0.0000000000000000e+00 8.9044108349278184e-01 1.9838919795929116e-01  0.0000000000000000e+00 8.8676996857800860e-01 2.0537144687820419e-01  0.0000000000000000e+00 8.8273761708521425e-01 2.1292605744030982e-01  0.0000000000000000e+00 8.7248813128640768e-01 2.3157528060854626e-01  0.0000000000000000e+00 8.6670267011496827e-01 2.4188482235687278e-01  0.0000000000000000e+00 8.6025820660557029e-01 2.5321945735095824e-01  0.0000000000000000e+00 8.5288561890363990e-01 2.6600557074541192e-01  0.0000000000000000e+00 8.4468383309950001e-01 2.8005134162618528e-01  0.0000000000000000e+00 8.3553394227822897e-01 2.9550685563064572e-01  0.0000000000000000e+00 8.2525034819339482e-01 3.1264437007092943e-01  0.0000000000000000e+00 8.1363466490249814e-01 3.3172017106472507e-01  0.0000000000000000e+00 8.0067375981733613e-01 3.5267247962003156e-01  0.0000000000000000e+00 7.8603531698075357e-01 3.7593760951580368e-01  0.0000000000000000e+00 7.6892744372644117e-01 4.0258075297560020e-01  0.0000000000000000e+00 7.4971271718911969e-01 4.3188924290299502e-01  0.0000000000000000e+00 7.2729672032256776e-01 4.6506455758010951e-01  0.0000000000000000e+00 7.0123805694061137e-01 5.0298982890768429e-01  0.0000000000000000e+00 6.6771307934373614e-01 5.4755411149003108e-01  0.0000000000000000e+00 6.1296367936947171e-01 6.2449201397584997e-01  0.0000000000000000e+00 6.6435156989881372e-01 5.5248255433787907e-01  0.0000000000000000e+00 2.3004847913139922e-01 9.3623482230077737e-01  0.0000000000000000e+00 8.5285638481432585e-02 2.9220824384101241e-01  0.0000000000000000e+00 4.5889544021795042e-01 3.4972090293131358e-01  0.0000000000000000e+00 2.9183323315505727e-01 6.9691537205024123e-01  0.0000000000000000e+00 1.8786919316700179e-01 4.6019528363166712e-01  0.0000000000000000e+00 4.6810866010568791e-01 5.0347873316921066e-01  0.0000000000000000e+00 7.5414162626507852e-01 3.0523122316472617e-01  0.0000000000000000e+00 6.9621677061768972e-01 1.5696675245705455e-01  0.0000000000000000e+00 2.0736020098376978e-01 1.2085637927314441e-01  0.0000000000000000e+00 5.6097454987744357e-02 3.3514421268947436e-01  0.0000000000000000e+00 1.1064611863338836e-01 9.3758652446575841e-01  0.0000000000000000e+00 5.3163415513020597e-02 6.0683218291656404e-01  0.0000000000000000e+00 4.9763457830957203e-02 1.5762313550963825e-01  0.0000000000000000e+00 1.6814592571351572e-01 8.0655178315934009e-02  0.0000000000000000e+00 2.7558430902558606e-01 6.9397218937399835e-02  0.0000000000000000e+00 1.5692358382352276e-01 7.5721636185322072e-02  0.0000000000000000e+00 3.6696461006627712e-02 8.0943202238910064e-02  0.0000000000000000e+00 6.7280552562505230e-02 7.4799249039925964e-02  0.0000000000000000e+00 5.8990039694089014e-01 1.4253670387409847e-01  0.0000000000000000e+00 8.1019464903168203e-01 2.8114723120254065e-01  0.0000000000000000e+00 7.6863733879901808e-01 3.8776839007766567e-01  0.0000000000000000e+00 6.8888615924279450e-01 5.3985380422088614e-01  0.0000000000000000e+00 7.5639485208122326e-01 4.4889845588710581e-01  0.0000000000000000e+00 8.5998644154775772e-01 2.2181507784336502e-01  0.0000000000000000e+00 7.3089164247593230e-01 1.6705904061168556e-01  0.0000000000000000e+00 1.9435264648421302e-01 8.0063762640673802e-02  0.0000000000000000e+00 6.0627427630257483e-02 1.1900806958311637e-01  0.0000000000000000e+00 2.6314737634146625e-02 2.8136264714402270e-01  0.0000000000000000e+00 3.4795440363143901e-02 3.0776981624787281e-01  0.0000000000000000e+00 4.0265258435323542e-01 3.6694671250775651e-01  0.0000000000000000e+00 6.9357932137573752e-01 1.0881103027714027e-01  0.0000000000000000e+00 3.2341467032034504e-01 5.4028870890073778e-02  0.0000000000000000e+00 4.2568247006621590e-01 6.0600399792035381e-02  0.0000000000000000e+00 7.5919187386918741e-01 3.1654519466504194e-01  0.0000000000000000e+00 4.6008493924115207e-01 7.8138874259403424e-01  0.0000000000000000e+00 7.9628970984851000e-02 8.5952201635341230e-01  0.0000000000000000e+00 2.5553699320948055e-02 4.0318530993485285e-01  0.0000000000000000e+00 3.6931060079328178e-02 1.8979395399532900e-01  0.0000000000000000e+00 7.6353112127975575e-02 1.0840973954196835e-01  0.0000000000000000e+00 1.7849612414410601e-01 3.3003150740808862e-01  0.0000000000000000e+00 3.4610908573952398e-01 3.8320083908842184e-01  0.0000000000000000e+00 1.4029728317509130e-01 4.0237832650640731e-01  0.0000000000000000e+00 3.3738174375078589e-01 8.2558944680490276e-01  0.0000000000000000e+00 8.8562527429845173e-01 1.4565824544172767e-01  0.0000000000000000e+00 8.4081747356940006e-01 5.9746070954728558e-02  0.0000000000000000e+00 8.4348322176189283e-01 7.5035582476894708e-02  0.0000000000000000e+00 8.5114908581930970e-01 7.5403660191677532e-02  0.0000000000000000e+00 8.4286027755920767e-01 6.7157045163864088e-02  0.0000000000000000e+00 9.1021491470404192e-01 8.2886089119470346e-02  0.0000000000000000e+00 4.0579567923220150e-01 8.1943365898891496e-01  0.0000000000000000e+00 1.0523724005422223e-01 4.4366221650652388e-01  0.0000000000000000e+00 3.8822960332606488e-01 3.4962320609769432e-01  0.0000000000000000e+00 3.8762806643969805e-01 6.4929543668593359e-01  0.0000000000000000e+00 1.1358406811550088e-01 7.6484942955564861e-01  0.0000000000000000e+00 1.6930237669692511e-01 9.0178954394405986e-01  0.0000000000000000e+00 5.8402262899785840e-01 6.4226761861601611e-01  0.0000000000000000e+00 7.9066948542652904e-01 2.4656640997155843e-01  0.0000000000000000e+00 3.5548944330749865e-01 1.0914204165219776e-01  0.0000000000000000e+00 4.6079089716757698e-02 1.1413607113003503e-01  0.0000000000000000e+00 3.0730952952320194e-02 1.4499565790874960e-01  0.0000000000000000e+00 3.4711308708195540e-02 1.3852904389872731e-01  0.0000000000000000e+00 4.9639905850426012e-02 2.0847762545579629e-01  0.0000000000000000e+00 1.7396012758642057e-01 7.4608978588036301e-01  0.0000000000000000e+00 8.3465344717944734e-01 2.5232223451059543e-01  0.0000000000000000e+00 6.1304834615965642e-01 5.8853369944949829e-01  0.0000000000000000e+00 5.6968529121532697e-02 7.5164007728651849e-01  0.0000000000000000e+00 1.9655360336725554e-02 4.6495799108358116e-01  0.0000000000000000e+00 2.6162865556495201e-02 2.7640511199577872e-01  0.0000000000000000e+00 5.0968948589261820e-02 1.3052104494813282e-01  0.0000000000000000e+00 1.1680204566205052e-01 7.4251349020670987e-02  0.0000000000000000e+00 2.3484651778152477e-01 5.9280320580249124e-02  0.0000000000000000e+00 3.2537517657700582e-01 5.5804192273294709e-02  0.0000000000000000e+00 2.4734048970372871e-01 5.5472285390219131e-02  0.0000000000000000e+00 9.4706876107933824e-02 9.4140477888713020e-02  0.0000000000000000e+00 2.4421591475561208e-02 2.3722859488090303e-01  0.0000000000000000e+00 3.4344242877499119e-02 6.1303223778311033e-01  0.0000000000000000e+00 4.1605848356713285e-02 7.6899893612327008e-01  0.0000000000000000e+00 4.1435144819481760e-02 7.3373669369056027e-01  0.0000000000000000e+00 6.4524418065133884e-02 8.4663450717744482e-01  0.0000000000000000e+00 1.0264886921220252e-01 9.1667286533272407e-01  0.0000000000000000e+00 1.9864627660841924e-01 9.5989691480627271e-01  0.0000000000000000e+00 5.0542574369509163e-01 7.7316498087247232e-01  0.0000000000000000e+00 7.1612292343623984e-01 4.8499591608689535e-01  0.0000000000000000e+00 2.6986554817306335e-01 9.4941721456035411e-01  0.0000000000000000e+00 3.7007170324734363e-02 3.8635174150894996e-01  0.0000000000000000e+00 2.0606279692189255e-01 1.5916218393549861e-01  0.0000000000000000e+00 6.1959292607417416e-01 3.0256314037018911e-01  0.0000000000000000e+00 5.9656724690258855e-01 4.4324037521332971e-01  0.0000000000000000e+00 3.3741048413962021e-01 4.2530426372805386e-01  0.0000000000000000e+00 1.5354200410761909e-01 5.5585416450209779e-01  0.0000000000000000e+00 3.7042182125975126e-01 6.3471226170633332e-01  0.0000000000000000e+00 3.2530373216610087e-01 2.6353837583297596e-01  0.0000000000000000e+00 4.0823001190167137e-02 4.8654017453681125e-01  0.0000000000000000e+00 3.5406802371213741e-01 9.0766118445446997e-01  0.0000000000000000e+00 4.9631176884153655e-01 7.4555037444792793e-01  0.0000000000000000e+00 5.6750223124468557e-01 6.7390808794505763e-01  0.0000000000000000e+00 6.0283103888619471e-01 6.3280067230540993e-01  0.0000000000000000e+00 6.3490916320621060e-01 5.9231379781081606e-01  0.0000000000000000e+00 6.6219897387891014e-01 5.5647776833249130e-01  0.0000000000000000e+00 6.8592374710433313e-01 5.2413421599851706e-01  0.0000000000000000e+00 7.0681142378607564e-01 4.9479034268297273e-01  0.0000000000000000e+00 7.2542813875574041e-01 4.6793754668020315e-01  0.0000000000000000e+00 7.4208783452020100e-01 4.4335378462271180e-01  0.0000000000000000e+00 7.5710573190667141e-01 4.2074670531285419e-01  0.0000000000000000e+00 7.7072072666672342e-01 3.9987968823043840e-01  0.0000000000000000e+00 7.8309015013271710e-01 3.8061783621458611e-01  0.0000000000000000e+00 7.9427394265588791e-01 3.6294492844362547e-01  0.0000000000000000e+00 8.0463539498596826e-01 3.4634959333127724e-01  0.0000000000000000e+00 8.1414635810908609e-01 3.3093045545386801e-01  0.0000000000000000e+00 8.2277304674286189e-01 3.1677816886004012e-01  0.0000000000000000e+00 8.3084219116383362e-01 3.0339616234102224e-01  0.0000000000000000e+00 8.3819535951055046e-01 2.9107381104988228e-01  0.0000000000000000e+00 8.4482413257434341e-01 2.7984445739839803e-01  0.0000000000000000e+00 8.5099612121099211e-01 2.6929215388728689e-01  0.0000000000000000e+00 8.5672067929870499e-01 2.5940327609185732e-01  0.0000000000000000e+00 8.6200169968286722e-01 2.5019158402186692e-01  0.0000000000000000e+00 8.6683823456050257e-01 2.4166796028747700e-01  0.0000000000000000e+00 8.7131964590114142e-01 2.3368672695248560e-01  0.0000000000000000e+00 8.7549077430837430e-01 2.2617586401165798e-01  0.0000000000000000e+00 8.7928910670929239e-01 2.1925820798995399e-01  0.0000000000000000e+00 8.8283581549998336e-01 2.1271855142096954e-01  0.0000000000000000e+00 8.8614402365515066e-01 2.0654250144565692e-01  0.0000000000000000e+00 8.8912284996603730e-01 2.0090016225334570e-01  0.0000000000000000e+00 8.9191190209759130e-01 1.9553833648966684e-01  0.0000000000000000e+00 8.9450356123423436e-01 1.9047594213079438e-01  0.0000000000000000e+00 8.9688130009321643e-01 1.8574884851251583e-01  0.0000000000000000e+00 8.9907760099960166e-01 1.8129777863604407e-01  0.0000000000000000e+00 9.0110488353140383e-01 1.7710387838960481e-01  0.0000000000000000e+00 9.0298381941147299e-01 1.7312865441703790e-01  0.0000000000000000e+00 9.0474100643607058e-01 1.6932111290758642e-01  0.0000000000000000e+00 9.0631140808768729e-01 1.6582532179076850e-01  0.0000000000000000e+00 9.0773913528256822e-01 1.6255094302495604e-01  0.0000000000000000e+00 9.0910234552104874e-01 1.5933047111477888e-01  0.0000000000000000e+00 9.1031586122439045e-01 1.5635935964967074e-01  0.0000000000000000e+00 9.1139567312730341e-01 1.5360815748047635e-01  0.0000000000000000e+00 9.1239375733110373e-01 1.5096413143172119e-01  0.0000000000000000e+00 9.1329459678829905e-01 1.4847088428644498e-01  0.0000000000000000e+00 9.1411894797347026e-01 1.4607549184038029e-01  0.0000000000000000e+00 9.1483984808509178e-01 1.4386893048207669e-01  0.0000000000000000e+00 9.1549549724118273e-01 1.4174234528060214e-01  0.0000000000000000e+00 9.1606754089990872e-01 1.3976390256586871e-01  0.0000000000000000e+00 9.1658276200982725e-01 1.3786379793779299e-01  0.0000000000000000e+00 9.1704601583725243e-01 1.3603175815771251e-01  0.0000000000000000e+00 9.1742645029827752e-01 1.3437682831929493e-01  0.0000000000000000e+00 9.1774881395340302e-01 1.3283660748193479e-01  0.0000000000000000e+00 9.1803777218580385e-01 1.3132952382852789e-01  0.0000000000000000e+00 9.1827159451949403e-01 1.2995211128597864e-01  0.0000000000000000e+00 9.1845811103460595e-01 1.2869061024605849e-01  0.0000000000000000e+00 9.1861433194206532e-01 1.2748748083012648e-01  0.0000000000000000e+00 9.1874126225942054e-01 1.2635456171203321e-01  0.0000000000000000e+00 9.1883453880866717e-01 1.2532809529146810e-01  0.0000000000000000e+00 9.1342114387420781e-01 1.4806368661033295e-01  0.0000000000000000e+00 7.3676973881481700e-02 8.1588336752624147e-01  0.0000000000000000e+00 9.1856240655639754e-01 1.2788588299484638e-01  0.0000000000000000e+00 4.8549179672731119e-01 7.6161953407838234e-01  0.0000000000000000e+00 9.1878784143526615e-01 1.2555349121873088e-01  0.0000000000000000e+00 1.0852514600503083e-01 7.7854426315775202e-02  0.0000000000000000e+00 9.1179204401103409e-01 1.5257393764636196e-01  0.0000000000000000e+00 8.7357004174794872e-01 2.2962770119481524e-01  0.0000000000000000e+00 1.3599515486570407e-01 3.1830016265417588e-01  0.0000000000000000e+00 6.8105074081525635e-02 2.6978671418535621e-01  0.0000000000000000e+00 9.0157190338298321e-01 1.7610608332810940e-01  0.0000000000000000e+00 4.8357739875286104e-01 1.2726228229271475e-01  0.0000000000000000e+00 1.1140275573927795e-01 7.4695617134847986e-02  0.0000000000000000e+00 8.8706913687075795e-01 2.0478763543662665e-01  0.0000000000000000e+00 2.8089026566924497e-01 5.0178198068594104e-01  0.0000000000000000e+00 9.1897121532782544e-01 1.2243522544973270e-01  0.0000000000000000e+00 4.9568628687495142e-01 7.0087394638682954e-01  0.0000000000000000e+00 7.2648995784092463e-01 4.2195259806485802e-01  0.0000000000000000e+00 9.1892936755169219e-01 1.1941317158558837e-01  0.0000000000000000e+00 8.5870381500131743e-01 2.5595243618534091e-01  0.0000000000000000e+00 6.3770656635911527e-01 5.8426695253456962e-01  0.0000000000000000e+00 8.0767300554065391e-01 3.4146447853712375e-01  0.0000000000000000e+00 9.1890040905105386e-01 1.1893210054613337e-01  0.0000000000000000e+00 9.5919962764067473e-02 6.3305460003810488e-01  0.0000000000000000e+00 7.7220308513339886e-01 3.9758013565432215e-01  0.0000000000000000e+00 7.4616442831585905e-01 4.3727969852106086e-01  0.0000000000000000e+00 9.1894004911150851e-01 1.1989408057130112e-01  0.0000000000000000e+00 9.1702878221453676e-01 1.3600158887284441e-01  0.0000000000000000e+00 6.7803870780171560e-01 3.6718946041183598e-01  0.0000000000000000e+00 2.7079949613529208e-01 4.6576562517935863e-02  0.0000000000000000e+00 9.0210748331122104e-01 1.7498798640402244e-01  0.0000000000000000e+00 9.1702749127209615e-01 1.3609770411998368e-01  0.0000000000000000e+00 8.3513801905801055e-01 7.4119599424221944e-02  0.0000000000000000e+00 8.2722787293714606e-01 3.0938112264749507e-01  0.0000000000000000e+00 6.7012567490646757e-01 5.4583375805075440e-01  0.0000000000000000e+00 9.1896774069513676e-01 1.2166346898435951e-01  0.0000000000000000e+00 4.1730378581451288e-01 8.1966661763345772e-01  0.0000000000000000e+00 3.0968709545345655e-02 5.3755897466942804e-01  0.0000000000000000e+00 9.1823204498184263e-01 1.3002903480766534e-01  0.0000000000000000e+00 9.0928151244924849e-01 1.5886906581302004e-01  0.0000000000000000e+00 4.6263786281183822e-01 4.1330714598014290e-01  0.0000000000000000e+00 3.7009548988556046e-02 6.4291547083365774e-01  0.0000000000000000e+00 8.9126663623865743e-01 1.9676335097722505e-01  0.0000000000000000e+00 9.1896457501295370e-01 1.2104194411936706e-01  0.0000000000000000e+00 9.0766172227689601e-01 1.6272078953772831e-01  0.0000000000000000e+00 1.5728016196849506e-01 6.8972297591034959e-01  0.0000000000000000e+00 1.4613972829027608e-01 3.4338848612019135e-01  0.0000000000000000e+00 8.5397140254903947e-01 2.6413511302261494e-01  0.0000000000000000e+00 1.0583619812534609e-01 1.7783092355425842e-01  0.0000000000000000e+00 9.1553085505844856e-01 1.4154922626349209e-01  0.0000000000000000e+00 9.1792104763667792e-01 1.3191841602982954e-01  0.0000000000000000e+00 8.7663150078329455e-01 2.2409885253556802e-01  0.0000000000000000e+00 3.3588336599899377e-02 1.3609536254556689e-01  0.0000000000000000e+00 8.4072540081481828e-01 2.8680563100255946e-01  0.0000000000000000e+00 5.4677877560957537e-02 6.5687487040625325e-01  0.0000000000000000e+00 9.1529894877849705e-01 1.4240781285946946e-01  0.0000000000