<?xml version="1.0"?>
<VTKFile type="UnstructuredGrid"  version="0.1"  >
<UnstructuredGrid>
<Piece  NumberOfPoints="4940" NumberOfCells="9650">
<Points>
<DataArray  type="Float64"  NumberOfComponents="3"  format="ascii">500 250 0  0 250 0  250 500 0  250 0 0  256.8885856082646 499.9050767557906 0  263.7719401218049 499.6203791065173 0  270.6448364229772 499.1461232471188 0  277.5020553257866 498.4826693209355 0  284.3383895508592 497.6305211460281 0  291.1486476865662 496.5903258312597 0  297.9276581259182 495.3628732847843 0  304.6702729675493 493.9490956196674 0  311.3713719748657 492.3500664368026 0  318.0258664141369 490.5670000199653 0  324.6287029687753 488.6012504015818 0  331.1748675330201 486.4543103455647 0  337.6593890460416 484.1278102064655 0  344.0773432429536 481.6235166997244 0  350.4238564271474 478.9433315480048 0  356.694109139292 476.0892900492477 0  362.88333985546 473.0635595140469 0  368.9868485575419 469.8684376402048 0  375.0000003153078 466.5063507640667 0  380.9182288257928 462.9798520074548 0  386.7370398729688 459.2916193419558 0  392.4520147244077 455.444453565817 0  398.0588135356345 451.4412761437442 0  403.5531785622926 447.285127045646 0  408.9309374414144 442.9791624087773 0  414.1880064015299 438.5266521049243 0  419.3203932989752 433.9309773069245 0  424.324200661095 429.1956279150535 0  429.1956286596235 424.3241998957182 0  433.9309780058756 419.3203925397119 0  438.5266527445345 414.1880056671062 0  442.9791630130591 408.9309367076756 0  447.2851276060475 403.5531778422888 0  451.4412766621026 398.0588128303826 0  455.4444540361634 392.4520140460735 0  459.2916197786263 386.7370392045948 0  462.9798524073514 380.9182281752347 0  466.5063511234856 374.9999996927758 0  469.8684379657123 368.9868479560565 0  473.0635598144817 362.8833392617846 0  476.0892903190255 356.6941085676214 0  478.9433317963513 350.4238558609745 0  481.6235169154735 344.0773427117675 0  484.12781039012 337.6593885555221 0  486.4543105028062 331.1748670749914 0  488.601250531677 324.6287025528375 0  490.5670001317469 318.0258660188321 0  492.3500665291326 311.3713716102628 0  493.949095695951 304.6702726271575 0  495.3628733416623 297.9276578347343 0  496.5903258712341 291.1486474470129 0  497.6305211749058 284.3383893426084 0  498.4826693388848 277.502055163614 0  499.1461232580606 270.6448362909296 0  499.6203791109319 263.7719400417897 0  499.9050767571306 256.8885855596534 0  499.9050767559877 243.1114143988867 0  499.6203791069493 236.2280598860241 0  499.1461232485393 229.3551635941651 0  498.4826693235677 222.4979446979962 0  497.6305211491849 215.6616104719064 0  496.5903258357701 208.8513523404629 0  495.3628732906988 202.0723419043604 0  493.9490956264813 195.3297270628552 0  492.3500664487791 188.6286280724281 0  490.5670000344809 181.9741336371959 0  488.6012504175981 175.3712970824318 0  486.4543103623226 168.8251325157939 0  484.1278102222298 162.3406109960628 0  481.6235167152198 155.9226567951971 0  478.9433315621651 149.5761436051346 0  476.0892900516498 143.3058908657982 0  473.063559513628 137.1166601437124 0  469.8684376406648 131.0131514433083 0  466.5063507675389 124.9999996907064 0  462.9798520124137 119.0817711822745 0  459.2916193464549 113.2629601339176 0  455.4444535642773 107.5479852733717 0  451.4412761528674 101.9411864767781 0  447.2851270583545 96.44682145403524 0  442.9791624165781 91.06906256805769 0  438.5266521117469 85.81199360630404 0  433.9309773156125 80.67960671046254 0  429.1956279150353 75.67579933888632 0  424.3241998888952 70.80437133373906 0  419.3203925223282 66.06902197812161 0  414.1880056411937 61.47334723289828 0  408.9309366751728 57.0208369601728 0  403.5531778009394 52.71487236176898 0  398.058812796452 48.55872331295853 0  392.4520140187753 44.55554594490843 0  386.7370391799677 40.70838020528396 0  380.9182281475119 37.02014757560744 0  374.9999996718656 33.49364886444181 0  368.9868479340393 30.13156202237255 0  362.8833392380029 26.93644017348339 0  356.6941085456942 23.91070967062674 0  350.4238558420009 21.0566681953261 0  344.0773426899492 18.37648307566465 0  337.6593885328982 15.87218960140942 0  331.1748670549786 13.54568949032341 0  324.6287025315056 11.39874946165088 0  318.0258660010876 9.432999863235466 0  311.3713716017894 7.649933468721599 0  304.6702726190621 6.050904302234756 0  297.9276578269805 4.637126656823085 0  291.148647441857 3.409674127905504 0  284.3383893425031 2.369478825079682 0  277.502055159398 1.517330660648639 0  270.6448362875833 0.853876741662134 0  263.7719400401456 0.3796208889774277 0  256.8885855592052 0.09492324285704967 0  243.1114143979462 0.09492324403817065 0  236.2280598850882 0.3796208931023841 0  229.3551635938215 0.8538767514891958 0  222.4979446968584 1.517330676558146 0  215.6616104703111 2.369478851036291 0  208.8513523382973 3.409674164591252 0  202.0723419066374 4.637126708856528 0  195.3297270659513 6.050904372824903 0  188.628628074828 7.649933550613184 0  181.9741336377093 9.432999965373938 0  175.3712970793675 11.39874958336037 0  168.8251325057572 13.54568964112298 0  162.340610986655 15.87218978129263 0  155.9226567874317 18.37648328793418 0  149.576143602509 21.05666843898663 0  143.3058908718157 23.91070994551046 0  137.1166601505524 26.93644048291054 0  131.0131514451933 30.13156235831508 0  124.9999996848412 33.49364923584736 0  119.0817711715717 37.0201479941652 0  113.2629601211624 40.70838066187849 0  107.5479852622251 44.55554644345162 0  101.9411864693332 48.55872385260452 0  96.44682143286516 52.71487295812284 0  91.06906254351222 57.02083760363669 0  85.81199358272519 61.4733479087879 0  80.67960667988106 66.06902271253972 0  75.67579930062769 70.80437212218331 0  70.80437129287643 75.67580015310926 0  66.06902193673014 80.67960752263491 0  61.47334718684866 85.81199441168215 0  57.02083692524275 91.0690633672404 0  52.71487232786438 96.44682224262129 0  48.55872328070024 101.941187247437 0  44.55554591578033 107.5479860232332 0  40.7083801742321 113.2629608675606 0  37.02014754791168 119.0817718975441 0  33.49364883372994 125.000000381329 0  30.13156199866361 131.0131521097709 0  26.9364401549829 137.1166607985551 0  23.91070965524918 143.3058914868915 0  21.05666818346614 149.576144185037 0  18.37648306853811 155.9226573275967 0  15.8721895918909 162.3406114925245 0  13.54568948170046 168.8251329701392 0  11.39874945301878 175.3712974960928 0  9.432999857087736 181.9741340206533 0  7.649933466342702 188.6286284076045 0  6.050904301250966 195.3297273853278 0  4.637126656808988 202.0723421730917 0  3.409674127767772 208.8513525589684 0  2.369478824521138 215.6616106615248 0  1.517330660909465 222.4979448382452 0  0.8538767414496533 229.355163714981 0  0.3796208887135322 236.2280599646376 0  0.09492324266324204 243.1114144478261 0  0.0949232442452228 256.8885856095658 0  0.3796208935834784 263.7719401236316 0  0.8538767530323526 270.6448364248016 0  1.517330679476544 277.5020553295092 0  2.369478854618649 284.3383895555228 0  3.409674170191892 291.1486476952655 0  4.6371267162381 297.9276581311522 0  6.050904381420935 304.6702729724059 0  7.649933562385399 311.3713719716595 0  9.43299997979841 318.0258664133013 0  11.3987495994252 324.6287029719946 0  13.54568965885832 331.174867545904 0  15.87218979367188 337.6593890464085 0  18.37648329843151 344.0773432384132 0  21.05666844777872 350.423856417535 0  23.91070995156048 356.6941091410045 0  26.93644048988043 362.8833398632205 0  30.13156235982007 368.9868485575877 0  33.49364924138357 375.0000003247478 0  37.0201480006036 380.9182288389023 0  40.70838066758398 386.7370398875706 0  44.55554644477201 392.4520147396792 0  48.55872386086904 398.0588135419111 0  52.71487295981296 403.5531785693063 0  57.02083760525949 408.9309374584583 0  61.47334790862246 414.1880064170849 0  66.06902271205095 419.320393319588 0  70.80437211216579 424.3242006890749 0  75.67580013809859 429.195628692521 0  80.6796075127923 433.930978054209 0  85.81199439754931 438.5266528008431 0  91.06906334717917 442.9791630582355 0  96.44682221438322 447.2851276501571 0  101.9411872243843 451.441276702356 0  107.5479859945825 455.4444540643537 0  113.2629608446994 459.2916198108319 0  119.0817718768376 462.9798524393601 0  125.0000003647644 466.5063511567065 0  131.0131521012763 469.8684379967393 0  137.1166607840049 473.0635598376539 0  143.3058914748804 476.0892903390826 0  149.5761441732679 478.9433318113714 0  155.9226573130112 481.6235169255377 0  162.3406114779862 484.1278104026658 0  168.8251329570439 486.4543105138039 0  175.3712974805475 488.601250542119 0  181.9741340135204 490.5670001408953 0  188.6286284005059 492.3500665318597 0  195.3297273788229 493.9490956972913 0  202.0723421640089 495.3628733414168 0  208.8513525529672 496.5903258712308 0  215.6616106544547 497.6305211744985 0  222.4979448327038 498.4826693384772 0  229.3551637102845 499.1461232581612 0  236.2280599621369 499.6203791111485 0  243.1114144470173 499.9050767573145 0  155.2373389820306 474.8197567317462 0  25.36256300907667 153.9152755065208 0  432.3709625126712 412.6214396304305 0  6.013151705810699 246.637913163471 0  246.6379131630491 493.986848294322 0  338.6995838441862 22.68244767887072 0  477.3175523131281 338.6995838660569 0  493.9868482700757 246.6379131399102 0  246.6201155078769 6.218451882810491 0  417.6179310263282 72.7156044707053 0  102.2232990934413 445.0100869616822 0  63.66330858966404 92.20354579482142 0  391.3105220491464 50.73522820883105 0  72.79295043967942 418.0702734974704 0  448.290574428537 108.25674339002 0  402.4604651193511 440.7462829841712 0  97.55317348421397 59.11376320116034 0  136.7376477664901 33.58246472647134 0  363.3288394375288 465.6947312928271 0  44.0678766556007 381.0860953771871 0  469.6905266180034 142.3890690100806 0  22.68244791668644 338.6995843487432 0  338.699584349159 477.317552078365 0  173.389488083762 18.6681884918202 0  483.4809734778481 179.7121987795732 0  13.50237455842738 306.4709525540879 0  305.9825168523021 487.24416992
[...]
<PointData  Vectors="f_12"> 
<DataArray  type="Float64"  Name="f_12"  NumberOfComponents="3" format="ascii">0.0000000000000000e+00 8.4174554513713129e-01 2.8624044852106045e-01  0.0000000000000000e+00 7.1180907749888878e-01 4.3978950263681110e-01  0.0000000000000000e+00 9.1885427476866388e-01 1.2510304885353338e-01  0.0000000000000000e+00 3.0290638957356498e-02 1.5217604915157698e-01  0.0000000000000000e+00 9.1891898082016987e-01 1.2417991804283447e-01  0.0000000000000000e+00 9.1895665943598304e-01 1.2339222980478071e-01  0.0000000000000000e+00 9.1898520905306258e-01 1.2261642220728715e-01  0.0000000000000000e+00 9.1899779830708317e-01 1.2195249668132642e-01  0.0000000000000000e+00 9.1900045083828630e-01 1.2135310126678094e-01  0.0000000000000000e+00 9.1899719103285937e-01 1.2082161197620747e-01  0.0000000000000000e+00 9.1898943443590253e-01 1.2035650581307882e-01  0.0000000000000000e+00 9.1897895029241461e-01 1.1994670297163032e-01  0.0000000000000000e+00 9.1896738866812511e-01 1.1960192378530515e-01  0.0000000000000000e+00 9.1895612394214954e-01 1.1932727283106180e-01  0.0000000000000000e+00 9.1894602978302053e-01 1.1919390453357046e-01  0.0000000000000000e+00 9.1894116602968112e-01 1.1896802911147046e-01  0.0000000000000000e+00 9.1893846629388054e-01 1.1900831328389375e-01  0.0000000000000000e+00 9.1893962941577922e-01 1.1898811089480692e-01  0.0000000000000000e+00 9.1894373430760889e-01 1.1906174723983894e-01  0.0000000000000000e+00 9.1895274220881962e-01 1.1918433835064426e-01  0.0000000000000000e+00 9.1896637274600024e-01 1.1934366022368352e-01  0.0000000000000000e+00 9.1897768781770683e-01 1.1964382969328252e-01  0.0000000000000000e+00 9.1898852310360635e-01 1.2002095529689610e-01  0.0000000000000000e+00 9.1900308937982922e-01 1.2037402649500048e-01  0.0000000000000000e+00 9.1901558917271031e-01 1.2080520087355576e-01  0.0000000000000000e+00 9.1901897260924170e-01 1.2135260947953923e-01  0.0000000000000000e+00 9.1901067464282993e-01 1.2203368936169207e-01  0.0000000000000000e+00 9.1900016387707584e-01 1.2268610191197857e-01  0.0000000000000000e+00 9.1897859789993097e-01 1.2340146199629920e-01  0.0000000000000000e+00 9.1893003310032606e-01 1.2429457856551634e-01  0.0000000000000000e+00 9.1886986350732192e-01 1.2519044439629240e-01  0.0000000000000000e+00 9.1878172909187639e-01 1.2619243551996825e-01  0.0000000000000000e+00 9.1866480879395951e-01 1.2728963421872369e-01  0.0000000000000000e+00 9.1852587294116994e-01 1.2842226031945747e-01  0.0000000000000000e+00 9.1832947373091578e-01 1.2975115851582433e-01  0.0000000000000000e+00 9.1809630396742858e-01 1.3115075004678886e-01  0.0000000000000000e+00 9.1784153011645542e-01 1.3255370356630219e-01  0.0000000000000000e+00 9.1750815712079148e-01 1.3416641267798926e-01  0.0000000000000000e+00 9.1707987515519351e-01 1.3601111082275844e-01  0.0000000000000000e+00 9.1660649329721944e-01 1.3790001075475403e-01  0.0000000000000000e+00 9.1609226817941891e-01 1.3981741923305682e-01  0.0000000000000000e+00 9.1546484219328195e-01 1.4197373422591442e-01  0.0000000000000000e+00 9.1471267457162364e-01 1.4438517383607472e-01  0.0000000000000000e+00 9.1387481184336661e-01 1.4691059420891434e-01  0.0000000000000000e+00 9.1289653963762829e-01 1.4968369042575966e-01  0.0000000000000000e+00 9.1179424862950753e-01 1.5265591121805161e-01  0.0000000000000000e+00 9.1055277306769522e-01 1.5584512917234108e-01  0.0000000000000000e+00 9.0916481534139193e-01 1.5925819339245018e-01  0.0000000000000000e+00 9.0751406444164728e-01 1.6313880500317302e-01  0.0000000000000000e+00 9.0568286585214974e-01 1.6729285710954001e-01  0.0000000000000000e+00 9.0362399777332103e-01 1.7179756039772975e-01  0.0000000000000000e+00 9.0130029264842493e-01 1.7673397597673082e-01  0.0000000000000000e+00 8.9873368275493082e-01 1.8203201285754173e-01  0.0000000000000000e+00 8.9576597320561591e-01 1.8799482433176154e-01  0.0000000000000000e+00 8.9245126587102530e-01 1.9451131059714097e-01  0.0000000000000000e+00 8.8879154910649949e-01 2.0151169474177219e-01  0.0000000000000000e+00 8.8471247753808868e-01 2.0930042705165711e-01  0.0000000000000000e+00 8.8026990555795459e-01 2.1693372363216795e-01  0.0000000000000000e+00 8.6630294812499586e-01 2.4367899003763344e-01  0.0000000000000000e+00 9.6411916582581692e-01 7.9127623905236005e-02  0.0000000000000000e+00 2.8947322255254793e-01 9.1465197161770984e-01  0.0000000000000000e+00 1.0755613045857225e-01 3.3352498457852559e-01  0.0000000000000000e+00 4.0400682792098092e-01 3.8300971808769030e-01  0.0000000000000000e+00 2.1301729128957550e-01 7.5028588612844960e-01  0.0000000000000000e+00 9.6061840922389841e-02 8.3947559631736535e-01  0.0000000000000000e+00 2.2314757685673231e-01 9.2183243335951670e-01  0.0000000000000000e+00 4.1077703515399855e-01 8.1292023203306685e-01  0.0000000000000000e+00 7.0069162480456249e-01 3.9363364170803000e-01  0.0000000000000000e+00 3.3260033983397819e-01 1.8188942406440536e-01  0.0000000000000000e+00 2.4087361291682804e-02 2.6493837427255440e-01  0.0000000000000000e+00 1.9376848887292780e-02 3.4532114775547279e-01  0.0000000000000000e+00 6.1009896915786954e-02 1.6208333074980957e-01  0.0000000000000000e+00 1.5956072505234273e-01 1.7405172847812694e-01  0.0000000000000000e+00 2.3269307789251248e-01 7.6661617332404142e-01  0.0000000000000000e+00 8.1508207966542268e-01 3.2293367270232776e-01  0.0000000000000000e+00 8.1405149957639966e-01 3.2248802004956734e-01  0.0000000000000000e+00 4.8263910899760060e-01 7.5388240346306556e-01  0.0000000000000000e+00 4.5972911398107658e-01 5.0530681341192352e-01  0.0000000000000000e+00 2.2120062798910026e-01 7.9837361263141268e-02  0.0000000000000000e+00 2.5237057365377180e-01 8.2400837978004793e-02  0.0000000000000000e+00 6.4628805451637472e-01 2.7860464233132243e-01  0.0000000000000000e+00 2.1944326596295055e-01 6.6757446653838382e-01  0.0000000000000000e+00 2.0391007871754976e-01 8.7344061986089705e-01  0.0000000000000000e+00 6.7557116688551444e-01 4.8229588669441881e-01  0.0000000000000000e+00 8.0281389990107221e-01 8.4554252014968564e-02  0.0000000000000000e+00 8.2673039210038568e-01 1.2407882472860338e-01  0.0000000000000000e+00 6.9716268414587645e-01 4.7793998895673068e-01  0.0000000000000000e+00 4.3878409948762381e-01 8.1747614797642809e-01  0.0000000000000000e+00 1.0782139236934223e-01 9.0263981188578513e-01  0.0000000000000000e+00 3.8179812434780865e-02 3.1767916079971820e-01  0.0000000000000000e+00 7.9912806030022029e-02 1.1050740397829364e-01  0.0000000000000000e+00 2.0864684656622665e-01 6.8863130748307494e-02  0.0000000000000000e+00 3.1690076216108498e-01 5.4777318159559600e-02  0.0000000000000000e+00 4.5460909512936176e-01 5.3899677857643657e-02  0.0000000000000000e+00 6.8576887739929215e-01 6.1448716133750581e-02  0.0000000000000000e+00 8.7748461278593681e-01 1.2176730163249133e-01  0.0000000000000000e+00 8.3229094794005887e-01 2.8179110837925092e-01  0.0000000000000000e+00 7.6578611446390077e-01 3.9665187042072469e-01  0.0000000000000000e+00 7.8609805732941584e-01 3.7094636207608783e-01  0.0000000000000000e+00 8.5895844527746168e-01 2.5107752157476643e-01  0.0000000000000000e+00 8.5253812645274951e-01 1.3987775790616114e-01  0.0000000000000000e+00 4.5923720851817301e-01 1.1243623518401860e-01  0.0000000000000000e+00 8.2779777941556582e-02 1.6612091524379247e-01  0.0000000000000000e+00 3.2928486367804509e-02 4.7211541113721550e-01  0.0000000000000000e+00 1.6544543062078498e-01 9.5499233911293580e-01  0.0000000000000000e+00 7.1542104438336007e-01 4.7686723592787789e-01  0.0000000000000000e+00 7.1932727684024311e-01 4.6995949041050622e-01  0.0000000000000000e+00 2.1849103512624055e-01 6.6345091694452574e-01  0.0000000000000000e+00 1.2298358384543838e-01 1.6371042115178761e-01  0.0000000000000000e+00 3.0564607319712327e-02 3.5098128626741071e-01  0.0000000000000000e+00 2.6165416715579318e-02 5.8852845413481025e-01  0.0000000000000000e+00 4.1998857041207122e-02 2.8571695263021707e-01  0.0000000000000000e+00 1.7278760012807959e-01 4.8344468140176300e-01  0.0000000000000000e+00 5.4854716744731657e-01 4.4418841063800885e-01  0.0000000000000000e+00 3.0627842376474629e-01 1.4845713806645669e-01  0.0000000000000000e+00 1.2498421553507588e-02 1.3628498608810397e-01  0.0000000000000000e+00 3.2657394125585250e-02 1.5900157800394196e-01  0.0000000000000000e+00 1.9701485034373304e-02 2.0729661851934839e-01  0.0000000000000000e+00 4.5631144552534711e-02 7.0111003314072362e-01  0.0000000000000000e+00 4.7101529505288792e-01 7.8865420060564251e-01  0.0000000000000000e+00 2.4079326551575841e-01 9.3178623212907041e-01  0.0000000000000000e+00 4.4423769815563841e-02 3.5768892965449672e-01  0.0000000000000000e+00 1.4393695244798430e-01 1.2125349362882663e-01  0.0000000000000000e+00 5.6751988787690355e-01 1.2474041360000622e-01  0.0000000000000000e+00 5.6472982602373023e-01 3.7127357730617017e-01  0.0000000000000000e+00 1.1006036659876588e-01 4.9472482926418915e-01  0.0000000000000000e+00 6.5639567999574086e-02 8.3419325954797030e-01  0.0000000000000000e+00 5.9511787844387619e-02 4.4342338061671338e-01  0.0000000000000000e+00 3.5245339425606076e-01 2.2146993189606029e-01  0.0000000000000000e+00 7.0705504367740135e-01 1.0433366676794167e-01  0.0000000000000000e+00 6.8553234186296885e-01 6.5172582809637808e-02  0.0000000000000000e+00 4.8960990034684970e-01 5.4378309301331085e-02  0.0000000000000000e+00 2.8127545289253009e-01 1.1813333152541837e-01  0.0000000000000000e+00 7.6156443440255836e-02 3.0908958013893229e-01  0.0000000000000000e+00 1.3893822663568164e-01 9.2638631042794084e-01  0.0000000000000000e+00 3.9450824809245855e-01 8.9470247590344831e-01  0.0000000000000000e+00 5.3849405002320938e-01 7.3368397036524102e-01  0.0000000000000000e+00 8.4901717128683574e-01 2.6876209105113336e-01  0.0000000000000000e+00 8.8580496918029927e-01 2.0550642892159632e-01  0.0000000000000000e+00 8.6733935717624777e-01 2.4062633889352500e-01  0.0000000000000000e+00 8.4090416056787887e-01 2.8330168784079685e-01  0.0000000000000000e+00 7.3116587200185934e-01 4.5303579471471622e-01  0.0000000000000000e+00 5.6861966926184171e-01 7.0066162456754566e-01  0.0000000000000000e+00 6.7609697079819855e-02 7.5020125330186682e-01  0.0000000000000000e+00 6.6017410627639495e-02 1.6967992501087725e-01  0.0000000000000000e+00 8.2075077650851633e-02 7.5379187916156554e-02  0.0000000000000000e+00 1.1436421606623470e-01 6.2898483108964676e-02  0.0000000000000000e+00 1.8782324965507141e-01 5.7349628084519287e-02  0.0000000000000000e+00 2.5353770198296621e-01 5.1215996184649934e-02  0.0000000000000000e+00 2.5812047616271505e-01 4.2871964020761467e-02  0.0000000000000000e+00 3.4975064404364498e-01 4.9195208257482075e-02  0.0000000000000000e+00 4.6706011542872816e-01 5.6550189230620058e-02  0.0000000000000000e+00 4.5061702916878466e-01 5.6414781596833739e-02  0.0000000000000000e+00 2.8106136581461783e-01 8.2538475327728678e-02  0.0000000000000000e+00 8.5152924669612051e-02 1.9393806788801288e-01  0.0000000000000000e+00 3.1588942169446271e-02 5.2444978507282225e-01  0.0000000000000000e+00 4.3850489298217117e-02 7.6846814619423798e-01  0.0000000000000000e+00 6.8491593593098185e-02 8.3877356973027994e-01  0.0000000000000000e+00 1.3449925376464297e-01 9.5525002412720883e-01  0.0000000000000000e+00 2.0152366905274238e-01 9.4653668449627537e-01  0.0000000000000000e+00 4.7756058875778007e-01 7.1658999668493129e-01  0.0000000000000000e+00 6.7478678170490536e-01 1.7560120728657708e-01  0.0000000000000000e+00 1.1336138824015102e-01 4.4868350001639717e-02  0.0000000000000000e+00 9.2507700666207532e-02 5.1614720794662346e-02  0.0000000000000000e+00 5.0217347284781055e-01 1.0174907543076342e-01  0.0000000000000000e+00 6.4217450843501744e-01 4.5655877111795062e-01  0.0000000000000000e+00 3.3456158455566432e-01 6.4312999615271116e-01  0.0000000000000000e+00 2.7614280854019502e-01 1.7549417508666676e-01  0.0000000000000000e+00 8.2325802325937586e-02 1.7165986147835804e-01  0.0000000000000000e+00 2.0216812516295552e-02 3.9933359025543397e-01  0.0000000000000000e+00 4.1154702099959070e-02 2.8782166590167069e-01  0.0000000000000000e+00 3.4894885332680337e-01 4.1861991716412184e-01  0.0000000000000000e+00 8.2449230646208727e-01 1.6885963225255265e-01  0.0000000000000000e+00 7.4371878891064258e-01 6.7438139487170326e-02  0.0000000000000000e+00 5.0402418476320054e-01 6.1474286829259461e-01  0.0000000000000000e+00 7.2916339948963585e-02 5.0033158963763480e-01  0.0000000000000000e+00 2.9901520470246669e-02 1.9564304298814064e-01  0.0000000000000000e+00 2.3286877600809310e-02 2.2661642307083957e-01  0.0000000000000000e+00 2.2459931460136598e-02 2.3235979338367871e-01  0.0000000000000000e+00 7.7125913640029811e-02 1.3686160478869339e-01  0.0000000000000000e+00 4.9790143503754170e-01 1.3920679032347316e-01  0.0000000000000000e+00 6.5525096246626802e-01 4.2767306841070646e-01  0.0000000000000000e+00 3.1402955240205083e-01 8.2698079560760729e-01  0.0000000000000000e+00 3.1216994210188109e-01 7.8900919481012710e-01  0.0000000000000000e+00 4.8273580477868261e-01 4.0874866188940029e-01  0.0000000000000000e+00 1.5497937682527899e-01 2.6381369121203063e-01  0.0000000000000000e+00 1.1913092690747484e-01 8.5458083401023033e-01  0.0000000000000000e+00 8.1413339588586453e-01 3.6969714004949461e-01  0.0000000000000000e+00 8.8064019973798935e-01 2.0575883379416404e-01  0.0000000000000000e+00 8.1857444664830736e-01 3.2970450629879017e-01  0.0000000000000000e+00 8.3910840669920095e-01 2.8802283301408049e-01  0.0000000000000000e+00 8.4616465284307940e-01 2.7791732939093300e-01  0.0000000000000000e+00 8.5246852481814317e-01 2.6670770424415052e-01  0.0000000000000000e+00 8.5837337156701043e-01 2.5652697596000495e-01  0.0000000000000000e+00 8.6382297790766760e-01 2.4698857916650921e-01  0.0000000000000000e+00 8.6883532007028785e-01 2.3811803329440751e-01  0.0000000000000000e+00 8.7335362325554722e-01 2.3003386426765468e-01  0.0000000000000000e+00 8.7754987939027596e-01 2.2243218332801054e-01  0.0000000000000000e+00 8.8144953206388366e-01 2.1528439017730694e-01  0.0000000000000000e+00 8.8494981866386202e-01 2.0877956968826411e-01  0.0000000000000000e+00 8.8820820759254038e-01 2.0263871539937783e-01  0.0000000000000000e+00 8.9121874673371759e-01 1.9687831658279645e-01  0.0000000000000000e+00 8.9396367892743822e-01 1.9153794870973770e-01  0.0000000000000000e+00 8.9648346868600770e-01 1.8654527657648634e-01  0.0000000000000000e+00 8.9879853219088601e-01 1.8186772689980157e-01  0.0000000000000000e+00 9.0093577041489425e-01 1.7745644401401936e-01  0.0000000000000000e+00 9.0292780997734401e-01 1.7325031252319864e-01  0.0000000000000000e+00 9.0470605069890175e-01 1.6939880751332834e-01  0.0000000000000000e+00 9.0631865062729555e-01 1.6580612892670274e-01  0.0000000000000000e+00 9.0785192267880399e-01 1.6229207443195970e-01  0.0000000000000000e+00 9.0921468809685213e-01 1.5906138579819912e-01  0.0000000000000000e+00 9.1042482649794043e-01 1.5608201603058686e-01  0.0000000000000000e+00 9.1154014460851007e-01 1.5323179398457759e-01  0.0000000000000000e+00 9.1254524636343937e-01 1.5055369396312868e-01  0.0000000000000000e+00 9.1346260172099758e-01 1.4799283362138482e-01  0.0000000000000000e+00 9.1426557336738956e-01 1.4563779323947690e-01  0.0000000000000000e+00 9.1499459067847055e-01 1.4337806010456200e-01  0.0000000000000000e+00 9.1563135429604103e-01 1.4128050980318052e-01  0.0000000000000000e+00 9.1620506850549710e-01 1.3927168012103264e-01  0.0000000000000000e+00 9.1672144069518235e-01 1.3733994485844403e-01  0.0000000000000000e+00 9.1714771704417020e-01 1.3559707553671799e-01  0.0000000000000000e+00 9.1751056701545641e-01 1.3397796988012964e-01  0.0000000000000000e+00 9.1783641994724674e-01 1.3239921309398700e-01  0.0000000000000000e+00 9.1810251444077640e-01 1.3095787383451674e-01  0.0000000000000000e+00 9.1831715950508541e-01 1.2963988142413713e-01  0.0000000000000000e+00 9.1849862624308654e-01 1.2838621348589369e-01  0.0000000000000000e+00 9.1864805351346612e-01 1.2720849706789086e-01  0.0000000000000000e+00 9.1876087423865371e-01 1.2614292846153438e-01  0.0000000000000000e+00 9.1270402168244569e-01 1.5007666136024483e-01  0.0000000000000000e+00 4.3271241579619958e-02 5.2705297631530146e-01  0.0000000000000000e+00 9.1826551619618013e-01 1.2996992296036686e-01  0.0000000000000000e+00 5.1538027618757665e-01 5.5848934223064484e-01  0.0000000000000000e+00 9.1871554695763513e-01 1.2634488023334386e-01  0.0000000000000000e+00 4.9834796185708435e-02 2.5475971978621315e-01  0.0000000000000000e+00 9.0918339240871482e-01 1.5912886450463237e-01  0.0000000000000000e+00 5.5251344521450385e-01 7.1672353200643024e-01  0.0000000000000000e+00 9.1358038510808606e-02 1.1713263728653896e-01  0.0000000000000000e+00 4.2525349705585185e-02 4.4880109073206415e-01  0.0000000000000000e+00 8.9935085306981755e-01 1.8072002487842048e-01  0.0000000000000000e+00 4.5710025020751133e-01 1.1521811196080591e-01  0.0000000000000000e+00 7.6012687182387240e-01 8.5526396947999989e-02  0.0000000000000000e+00 8.8256950437969683e-01 2.1320277878450875e-01  0.0000000000000000e+00 1.1826533809552660e-01 8.0759404168735227e-01  0.0000000000000000e+00 9.1892510281533968e-01 1.2375450389799586e-01  0.0000000000000000e+00 8.5662088085173471e-01 2.5611865129272332e-01  0.0000000000000000e+00 1.5525810180207381e-01 1.6776256808752668e-01  0.0000000000000000e+00 9.1896341154466721e-01 1.2028102991390054e-01  0.0000000000000000e+00 8.4876882347391025e-01 2.7310406574003726e-01  0.0000000000000000e+00 5.8787304254468442e-01 6.4577125199305274e-01  0.0000000000000000e+00 4.0340581003940690e-01 3.1064672954841388e-01  0.0000000000000000e+00 9.1893880255564964e-01 1.1966536008517366e-01  0.0000000000000000e+00 1.9425268852271017e-02 4.7210121738100358e-01  0.0000000000000000e+00 1.7659432838984742e-02 3.4369203141809290e-01  0.0000000000000000e+00 1.8725672498846585e-01 1.2407634133601321e-01  0.0000000000000000e+00 9.1895973990830981e-01 1.2055678375779186e-01  0.0000000000000000e+00 9.1671780552469528e-01 1.3726540238864079e-01  0.0000000000000000e+00 2.1243732055608738e-01 5.9892670697075018e-02  0.0000000000000000e+00 1.0814922159601544e-01 1.8369475939296190e-01  0.0000000000000000e+00 8.9617465985422928e-01 1.8714676362976038e-01  0.0000000000000000e+00 9.1615006320924608e-01 1.3948036010112064e-01  0.0000000000000000e+00 6.7864713614034414e-02 1.7478620025106784e-01  0.0000000000000000e+00 3.2140376452207770e-01 8.8627094676605456e-01  0.0000000000000000e+00 4.6169608369347498e-02 2.8111105403268916e-01  0.0000000000000000e+00 9.1895981795342530e-01 1.2234223547878482e-01  0.0000000000000000e+00 4.8440527080101498e-01 7.6583114345952030e-01  0.0000000000000000e+00 6.0373039238010129e-01 1.2010523102205771e-01  0.0000000000000000e+00 9.1806969637044022e-01 1.3100192453554532e-01  0.0000000000000000e+00 9.0807617064232593e-01 1.6174172088335145e-01  0.0000000000000000e+00 1.2517217324858071e-01 1.1006243423498951e-01  0.0000000000000000e+00 3.2476488768345418e-01 6.3376822026859192e-01  0.0000000000000000e+00 8.8164587629300584e-01 2.1501613683712445e-01  0.0000000000000000e+00 9.1896332328295727e-01 1.2212920363782107e-01  0.0000000000000000e+00 9.0366907989899570e-01 1.7163781564912559e-01  0.0000000000000000e+00 1.7215852172468674e-01 9.2233990545257816e-01  0.0000000000000000e+00 8.4059368882441965e-01 2.7645402520240514e-01  0.0000000000000000e+00 3.4976463003084041e-01 6.3419720954786463e-01  0.0000000000000000e+00 8.1421416133726732e-01 2.9008466681718198e-01  0.0000000000000000e+00 9.1505141197759965e-01 1.4312954649022622e-01  0.0000000000000000e+00 9.1737446375015230e-01 1.3458422827880728e-01  0.0000000000000000e+00 8.7023970983967303e-01 2.3560739413317075e-01  0.0000000000000000e+00 4.3688693294250563e-01 8.4366205193687138e-01  0.0000000000000000e+00 8.5113929300425195e-01 2.6476778324695222e-01  0.0000000000000000e+00 5.2797736392029959e-01 5.7563537331974979e-01  0.0000000000000000e+00 9.1384532732293311e-01 1.4689973028415795e-01  0.0000000000