<?xml version="1.0"?>
<VTKFile type="UnstructuredGrid"  version="0.1"  >
<UnstructuredGrid>
<Piece  NumberOfPoints="4940" NumberOfCells="9650">
<Points>
<DataArray  type="Float64"  NumberOfComponents="3"  format="ascii">500 250 0  0 250 0  250 500 0  250 0 0  256.8885856082646 499.9050767557906 0  263.7719401218049 499.6203791065173 0  270.6448364229772 499.1461232471188 0  277.5020553257866 498.4826693209355 0  284.3383895508592 497.6305211460281 0  291.1486476865662 496.5903258312597 0  297.9276581259182 495.3628732847843 0  304.6702729675493 493.9490956196674 0  311.3713719748657 492.3500664368026 0  318.0258664141369 490.5670000199653 0  324.6287029687753 488.6012504015818 0  331.1748675330201 486.4543103455647 0  337.6593890460416 484.1278102064655 0  344.0773432429536 481.6235166997244 0  350.4238564271474 478.9433315480048 0  356.694109139292 476.0892900492477 0  362.88333985546 473.0635595140469 0  368.9868485575419 469.8684376402048 0  375.0000003153078 466.5063507640667 0  380.9182288257928 462.9798520074548 0  386.7370398729688 459.2916193419558 0  392.4520147244077 455.444453565817 0  398.0588135356345 451.4412761437442 0  403.5531785622926 447.285127045646 0  408.9309374414144 442.9791624087773 0  414.1880064015299 438.5266521049243 0  419.3203932989752 433.9309773069245 0  424.324200661095 429.1956279150535 0  429.1956286596235 424.3241998957182 0  433.9309780058756 419.3203925397119 0  438.5266527445345 414.1880056671062 0  442.9791630130591 408.9309367076756 0  447.2851276060475 403.5531778422888 0  451.4412766621026 398.0588128303826 0  455.4444540361634 392.4520140460735 0  459.2916197786263 386.7370392045948 0  462.9798524073514 380.9182281752347 0  466.5063511234856 374.9999996927758 0  469.8684379657123 368.9868479560565 0  473.0635598144817 362.8833392617846 0  476.0892903190255 356.6941085676214 0  478.9433317963513 350.4238558609745 0  481.6235169154735 344.0773427117675 0  484.12781039012 337.6593885555221 0  486.4543105028062 331.1748670749914 0  488.601250531677 324.6287025528375 0  490.5670001317469 318.0258660188321 0  492.3500665291326 311.3713716102628 0  493.949095695951 304.6702726271575 0  495.3628733416623 297.9276578347343 0  496.5903258712341 291.1486474470129 0  497.6305211749058 284.3383893426084 0  498.4826693388848 277.502055163614 0  499.1461232580606 270.6448362909296 0  499.6203791109319 263.7719400417897 0  499.9050767571306 256.8885855596534 0  499.9050767559877 243.1114143988867 0  499.6203791069493 236.2280598860241 0  499.1461232485393 229.3551635941651 0  498.4826693235677 222.4979446979962 0  497.6305211491849 215.6616104719064 0  496.5903258357701 208.8513523404629 0  495.3628732906988 202.0723419043604 0  493.9490956264813 195.3297270628552 0  492.3500664487791 188.6286280724281 0  490.5670000344809 181.9741336371959 0  488.6012504175981 175.3712970824318 0  486.4543103623226 168.8251325157939 0  484.1278102222298 162.3406109960628 0  481.6235167152198 155.9226567951971 0  478.9433315621651 149.5761436051346 0  476.0892900516498 143.3058908657982 0  473.063559513628 137.1166601437124 0  469.8684376406648 131.0131514433083 0  466.5063507675389 124.9999996907064 0  462.9798520124137 119.0817711822745 0  459.2916193464549 113.2629601339176 0  455.4444535642773 107.5479852733717 0  451.4412761528674 101.9411864767781 0  447.2851270583545 96.44682145403524 0  442.9791624165781 91.06906256805769 0  438.5266521117469 85.81199360630404 0  433.9309773156125 80.67960671046254 0  429.1956279150353 75.67579933888632 0  424.3241998888952 70.80437133373906 0  419.3203925223282 66.06902197812161 0  414.1880056411937 61.47334723289828 0  408.9309366751728 57.0208369601728 0  403.5531778009394 52.71487236176898 0  398.058812796452 48.55872331295853 0  392.4520140187753 44.55554594490843 0  386.7370391799677 40.70838020528396 0  380.9182281475119 37.02014757560744 0  374.9999996718656 33.49364886444181 0  368.9868479340393 30.13156202237255 0  362.8833392380029 26.93644017348339 0  356.6941085456942 23.91070967062674 0  350.4238558420009 21.0566681953261 0  344.0773426899492 18.37648307566465 0  337.6593885328982 15.87218960140942 0  331.1748670549786 13.54568949032341 0  324.6287025315056 11.39874946165088 0  318.0258660010876 9.432999863235466 0  311.3713716017894 7.649933468721599 0  304.6702726190621 6.050904302234756 0  297.9276578269805 4.637126656823085 0  291.148647441857 3.409674127905504 0  284.3383893425031 2.369478825079682 0  277.502055159398 1.517330660648639 0  270.6448362875833 0.853876741662134 0  263.7719400401456 0.3796208889774277 0  256.8885855592052 0.09492324285704967 0  243.1114143979462 0.09492324403817065 0  236.2280598850882 0.3796208931023841 0  229.3551635938215 0.8538767514891958 0  222.4979446968584 1.517330676558146 0  215.6616104703111 2.369478851036291 0  208.8513523382973 3.409674164591252 0  202.0723419066374 4.637126708856528 0  195.3297270659513 6.050904372824903 0  188.628628074828 7.649933550613184 0  181.9741336377093 9.432999965373938 0  175.3712970793675 11.39874958336037 0  168.8251325057572 13.54568964112298 0  162.340610986655 15.87218978129263 0  155.9226567874317 18.37648328793418 0  149.576143602509 21.05666843898663 0  143.3058908718157 23.91070994551046 0  137.1166601505524 26.93644048291054 0  131.0131514451933 30.13156235831508 0  124.9999996848412 33.49364923584736 0  119.0817711715717 37.0201479941652 0  113.2629601211624 40.70838066187849 0  107.5479852622251 44.55554644345162 0  101.9411864693332 48.55872385260452 0  96.44682143286516 52.71487295812284 0  91.06906254351222 57.02083760363669 0  85.81199358272519 61.4733479087879 0  80.67960667988106 66.06902271253972 0  75.67579930062769 70.80437212218331 0  70.80437129287643 75.67580015310926 0  66.06902193673014 80.67960752263491 0  61.47334718684866 85.81199441168215 0  57.02083692524275 91.0690633672404 0  52.71487232786438 96.44682224262129 0  48.55872328070024 101.941187247437 0  44.55554591578033 107.5479860232332 0  40.7083801742321 113.2629608675606 0  37.02014754791168 119.0817718975441 0  33.49364883372994 125.000000381329 0  30.13156199866361 131.0131521097709 0  26.9364401549829 137.1166607985551 0  23.91070965524918 143.3058914868915 0  21.05666818346614 149.576144185037 0  18.37648306853811 155.9226573275967 0  15.8721895918909 162.3406114925245 0  13.54568948170046 168.8251329701392 0  11.39874945301878 175.3712974960928 0  9.432999857087736 181.9741340206533 0  7.649933466342702 188.6286284076045 0  6.050904301250966 195.3297273853278 0  4.637126656808988 202.0723421730917 0  3.409674127767772 208.8513525589684 0  2.369478824521138 215.6616106615248 0  1.517330660909465 222.4979448382452 0  0.8538767414496533 229.355163714981 0  0.3796208887135322 236.2280599646376 0  0.09492324266324204 243.1114144478261 0  0.0949232442452228 256.8885856095658 0  0.3796208935834784 263.7719401236316 0  0.8538767530323526 270.6448364248016 0  1.517330679476544 277.5020553295092 0  2.369478854618649 284.3383895555228 0  3.409674170191892 291.1486476952655 0  4.6371267162381 297.9276581311522 0  6.050904381420935 304.6702729724059 0  7.649933562385399 311.3713719716595 0  9.43299997979841 318.0258664133013 0  11.3987495994252 324.6287029719946 0  13.54568965885832 331.174867545904 0  15.87218979367188 337.6593890464085 0  18.37648329843151 344.0773432384132 0  21.05666844777872 350.423856417535 0  23.91070995156048 356.6941091410045 0  26.93644048988043 362.8833398632205 0  30.13156235982007 368.9868485575877 0  33.49364924138357 375.0000003247478 0  37.0201480006036 380.9182288389023 0  40.70838066758398 386.7370398875706 0  44.55554644477201 392.4520147396792 0  48.55872386086904 398.0588135419111 0  52.71487295981296 403.5531785693063 0  57.02083760525949 408.9309374584583 0  61.47334790862246 414.1880064170849 0  66.06902271205095 419.320393319588 0  70.80437211216579 424.3242006890749 0  75.67580013809859 429.195628692521 0  80.6796075127923 433.930978054209 0  85.81199439754931 438.5266528008431 0  91.06906334717917 442.9791630582355 0  96.44682221438322 447.2851276501571 0  101.9411872243843 451.441276702356 0  107.5479859945825 455.4444540643537 0  113.2629608446994 459.2916198108319 0  119.0817718768376 462.9798524393601 0  125.0000003647644 466.5063511567065 0  131.0131521012763 469.8684379967393 0  137.1166607840049 473.0635598376539 0  143.3058914748804 476.0892903390826 0  149.5761441732679 478.9433318113714 0  155.9226573130112 481.6235169255377 0  162.3406114779862 484.1278104026658 0  168.8251329570439 486.4543105138039 0  175.3712974805475 488.601250542119 0  181.9741340135204 490.5670001408953 0  188.6286284005059 492.3500665318597 0  195.3297273788229 493.9490956972913 0  202.0723421640089 495.3628733414168 0  208.8513525529672 496.5903258712308 0  215.6616106544547 497.6305211744985 0  222.4979448327038 498.4826693384772 0  229.3551637102845 499.1461232581612 0  236.2280599621369 499.6203791111485 0  243.1114144470173 499.9050767573145 0  155.2373389820306 474.8197567317462 0  25.36256300907667 153.9152755065208 0  432.3709625126712 412.6214396304305 0  6.013151705810699 246.637913163471 0  246.6379131630491 493.986848294322 0  338.6995838441862 22.68244767887072 0  477.3175523131281 338.6995838660569 0  493.9868482700757 246.6379131399102 0  246.6201155078769 6.218451882810491 0  417.6179310263282 72.7156044707053 0  102.2232990934413 445.0100869616822 0  63.66330858966404 92.20354579482142 0  391.3105220491464 50.73522820883105 0  72.79295043967942 418.0702734974704 0  448.290574428537 108.25674339002 0  402.4604651193511 440.7462829841712 0  97.55317348421397 59.11376320116034 0  136.7376477664901 33.58246472647134 0  363.3288394375288 465.6947312928271 0  44.0678766556007 381.0860953771871 0  469.6905266180034 142.3890690100806 0  22.68244791668644 338.6995843487432 0  338.699584349159 477.317552078365 0  173.389488083762 18.6681884918202 0  483.4809734778481 179.7121987795732 0  13.50237455842738 306.4709525540879 0  305.9825168523021 487.24416992
[...]
<PointData  Vectors="f_12"> 
<DataArray  type="Float64"  Name="f_12"  NumberOfComponents="3" format="ascii">0.0000000000000000e+00 2.6783166791461638e-01 4.5614894649005300e-01  0.0000000000000000e+00 2.6540578094314288e-01 4.7206337801653447e-01  0.0000000000000000e+00 2.9180213883710143e-01 4.3782266384004459e-01  0.0000000000000000e+00 2.6729862900553453e-01 4.9782814070921932e-01  0.0000000000000000e+00 2.9189658442343663e-01 4.3762979611402564e-01  0.0000000000000000e+00 2.9195547381988468e-01 4.3746146379691297e-01  0.0000000000000000e+00 2.9199061956150568e-01 4.3730386629725376e-01  0.0000000000000000e+00 2.9199533008075251e-01 4.3716510963479338e-01  0.0000000000000000e+00 2.9196894007889246e-01 4.3704598664599176e-01  0.0000000000000000e+00 2.9191376497205845e-01 4.3694359860739024e-01  0.0000000000000000e+00 2.9182929080041392e-01 4.3685911075447265e-01  0.0000000000000000e+00 2.9171553385770554e-01 4.3679284877255059e-01  0.0000000000000000e+00 2.9157332193401259e-01 4.3674391576744637e-01  0.0000000000000000e+00 2.9140138202514987e-01 4.3671451640537118e-01  0.0000000000000000e+00 2.9119555179755585e-01 4.3671131429320681e-01  0.0000000000000000e+00 2.9097243063953604e-01 4.3671243377085850e-01  0.0000000000000000e+00 2.9071011263677182e-01 4.3674809936931597e-01  0.0000000000000000e+00 2.9043100934629673e-01 4.3678772044680009e-01  0.0000000000000000e+00 2.9012143602225593e-01 4.3685343564416718e-01  0.0000000000000000e+00 2.8978757206317052e-01 4.3693588003710887e-01  0.0000000000000000e+00 2.8942955927564978e-01 4.3703569322511049e-01  0.0000000000000000e+00 2.8904379171695221e-01 4.3716322459414492e-01  0.0000000000000000e+00 2.8863603487909184e-01 4.3730802883547837e-01  0.0000000000000000e+00 2.8821137441684813e-01 4.3745963315909842e-01  0.0000000000000000e+00 2.8776373250756837e-01 4.3763456091766523e-01  0.0000000000000000e+00 2.8729454931451842e-01 4.3783287319813657e-01  0.0000000000000000e+00 2.8680454518432863e-01 4.3805949414897111e-01  0.0000000000000000e+00 2.8630003604601600e-01 4.3829150410882556e-01  0.0000000000000000e+00 2.8577892061136362e-01 4.3854054244881424e-01  0.0000000000000000e+00 2.8524122803982749e-01 4.3882156623990975e-01  0.0000000000000000e+00 2.8468988723862965e-01 4.3911027017496129e-01  0.0000000000000000e+00 2.8412573887108339e-01 4.3942136496779738e-01  0.0000000000000000e+00 2.8355036691068591e-01 4.3975740836532606e-01  0.0000000000000000e+00 2.8296315707645636e-01 4.4010032782698977e-01  0.0000000000000000e+00 2.8236873687873487e-01 4.4047202973561916e-01  0.0000000000000000e+00 2.8176657426829327e-01 4.4086182332711610e-01  0.0000000000000000e+00 2.8115385550116939e-01 4.4125852077223632e-01  0.0000000000000000e+00 2.8053846347804678e-01 4.4168147507227484e-01  0.0000000000000000e+00 2.7992365654474216e-01 4.4213102967095580e-01  0.0000000000000000e+00 2.7930322106631522e-01 4.4259244370027617e-01  0.0000000000000000e+00 2.7867580556751276e-01 4.4306389879141184e-01  0.0000000000000000e+00 2.7805334209343696e-01 4.4356092370242778e-01  0.0000000000000000e+00 2.7743559750421232e-01 4.4407931705787229e-01  0.0000000000000000e+00 2.7681666598659299e-01 4.4461092861382856e-01  0.0000000000000000e+00 2.7620341679212257e-01 4.4516198909689297e-01  0.0000000000000000e+00 2.7559587282495973e-01 4.4573078603400812e-01  0.0000000000000000e+00 2.7499349411671031e-01 4.4631554003465013e-01  0.0000000000000000e+00 2.7439442693491611e-01 4.4691441894078898e-01  0.0000000000000000e+00 2.7381161355016126e-01 4.4753518709378970e-01  0.0000000000000000e+00 2.7323692054601528e-01 4.4817102718806012e-01  0.0000000000000000e+00 2.7267199189180358e-01 4.4882228092028015e-01  0.0000000000000000e+00 2.7211986762985235e-01 4.4948998148522196e-01  0.0000000000000000e+00 2.7157396564352659e-01 4.5016949422196184e-01  0.0000000000000000e+00 2.7105250404649861e-01 4.5086970104797408e-01  0.0000000000000000e+00 2.7054183169834500e-01 4.5158267009252462e-01  0.0000000000000000e+00 2.7004124972880988e-01 4.5230784550952008e-01  0.0000000000000000e+00 2.6956103048204205e-01 4.5304869097256184e-01  0.0000000000000000e+00 2.6909821696349684e-01 4.5380351356530924e-01  0.0000000000000000e+00 2.6865230499467729e-01 4.5457119138033891e-01  0.0000000000000000e+00 2.6820740058983106e-01 4.5534607701962276e-01  0.0000000000000000e+00 2.6742472223931363e-01 4.5694751124860283e-01  0.0000000000000000e+00 2.6705431504986638e-01 4.5776290474371262e-01  0.0000000000000000e+00 2.6669448247595973e-01 4.5858662497972491e-01  0.0000000000000000e+00 2.6636952641214268e-01 4.5942373462262570e-01  0.0000000000000000e+00 2.6606453196251983e-01 4.6027010977111410e-01  0.0000000000000000e+00 2.6577637060806769e-01 4.6112420098550511e-01  0.0000000000000000e+00 2.6549966968327232e-01 4.6198488667380189e-01  0.0000000000000000e+00 2.6525295422762946e-01 4.6285479578835309e-01  0.0000000000000000e+00 2.6502423731503588e-01 4.6373106520681001e-01  0.0000000000000000e+00 2.6481074771072544e-01 4.6461270285512396e-01  0.0000000000000000e+00 2.6463522669175554e-01 4.6550190878947661e-01  0.0000000000000000e+00 2.6446202515022860e-01 4.6639370085589404e-01  0.0000000000000000e+00 2.6430276018010129e-01 4.6728887558828786e-01  0.0000000000000000e+00 2.6417888511427357e-01 4.6818862654747040e-01  0.0000000000000000e+00 2.6407295127270752e-01 4.6909038292576422e-01  0.0000000000000000e+00 2.6398330285182625e-01 4.6999347064574254e-01  0.0000000000000000e+00 2.6391008024124929e-01 4.7089715189622228e-01  0.0000000000000000e+00 2.6385180681786730e-01 4.7180069589613033e-01  0.0000000000000000e+00 2.6381308717969471e-01 4.7270329284936552e-01  0.0000000000000000e+00 2.6380216875373202e-01 4.7360337263971281e-01  0.0000000000000000e+00 2.6378304168017203e-01 4.7450198155529516e-01  0.0000000000000000e+00 2.6379763881229978e-01 4.7539595587466027e-01  0.0000000000000000e+00 2.6381606145376568e-01 4.7628616229649062e-01  0.0000000000000000e+00 2.6385598890464540e-01 4.7717029721523091e-01  0.0000000000000000e+00 2.6390278184017618e-01 4.7804888509880600e-01  0.0000000000000000e+00 2.6396425831228265e-01 4.7891998617960901e-01  0.0000000000000000e+00 2.6403803097538753e-01 4.7978283039751229e-01  0.0000000000000000e+00 2.6412219837103185e-01 4.8063668017403194e-01  0.0000000000000000e+00 2.6421604610590305e-01 4.8148065107600813e-01  0.0000000000000000e+00 2.6431699465065955e-01 4.8231417761331008e-01  0.0000000000000000e+00 2.6442777969496328e-01 4.8313556139222302e-01  0.0000000000000000e+00 2.6454538741993233e-01 4.8394428116957838e-01  0.0000000000000000e+00 2.6466219432224003e-01 4.8474191478946521e-01  0.0000000000000000e+00 2.6478939090951270e-01 4.8552371364851932e-01  0.0000000000000000e+00 2.6493164054498236e-01 4.8628600715252546e-01  0.0000000000000000e+00 2.6506249476161109e-01 4.8703822340572939e-01  0.0000000000000000e+00 2.6519505413242800e-01 4.8777411281872640e-01  0.0000000000000000e+00 2.6534043115787542e-01 4.8848712481032619e-01  0.0000000000000000e+00 2.6547563352279990e-01 4.8918728640010806e-01  0.0000000000000000e+00 2.6561009833993704e-01 4.8986875524533346e-01  0.0000000000000000e+00 2.6575724633195752e-01 4.9052288402793282e-01  0.0000000000000000e+00 2.6589788732209801e-01 4.9115827670758105e-01  0.0000000000000000e+00 2.6603138622798150e-01 4.9177570074101001e-01  0.0000000000000000e+00 2.6616000089676861e-01 4.9237226599767070e-01  0.0000000000000000e+00 2.6628900216342632e-01 4.9294290495046561e-01  0.0000000000000000e+00 2.6641113267293459e-01 4.9349185998598599e-01  0.0000000000000000e+00 2.6652849960925357e-01 4.9401649137607723e-01  0.0000000000000000e+00 2.6664119458774671e-01 4.9451547238885335e-01  0.0000000000000000e+00 2.6674603873732511e-01 4.9499049684260860e-01  0.0000000000000000e+00 2.6684084783223777e-01 4.9544282810615098e-01  0.0000000000000000e+00 2.6693038948196945e-01 4.9586693497711937e-01  0.0000000000000000e+00 2.6701581792823159e-01 4.9626083614010746e-01  0.0000000000000000e+00 2.6709220303884768e-01 4.9662832640846266e-01  0.0000000000000000e+00 2.6715865498073671e-01 4.9696902824136557e-01  0.0000000000000000e+00 2.6721595539359472e-01 4.9728212593109661e-01  0.0000000000000000e+00 2.6726182343759630e-01 4.9756946958576931e-01  0.0000000000000000e+00 2.6733382569028036e-01 4.9804644793850644e-01  0.0000000000000000e+00 2.6733728232367526e-01 4.9826475937553988e-01  0.0000000000000000e+00 2.6735536709402530e-01 4.9842315356619898e-01  0.0000000000000000e+00 2.6735115015910066e-01 4.9856741162374413e-01  0.0000000000000000e+00 2.6733804045869924e-01 4.9868056622080620e-01  0.0000000000000000e+00 2.6731732138736974e-01 4.9876113695752233e-01  0.0000000000000000e+00 2.6728616101791436e-01 4.9881360671021135e-01  0.0000000000000000e+00 2.6724342892550701e-01 4.9883845922159087e-01  0.0000000000000000e+00 2.6719659128317191e-01 4.9882709929378855e-01  0.0000000000000000e+00 2.6712698042615307e-01 4.9880189747198322e-01  0.0000000000000000e+00 2.6706124112783775e-01 4.9873355691084204e-01  0.0000000000000000e+00 2.6698488765790490e-01 4.9863816590280619e-01  0.0000000000000000e+00 2.6690357997920694e-01 4.9850934743776504e-01  0.0000000000000000e+00 2.6680287155690963e-01 4.9836558751998261e-01  0.0000000000000000e+00 2.6669781203350579e-01 4.9818933925453757e-01  0.0000000000000000e+00 2.6659146137228895e-01 4.9797913378512249e-01  0.0000000000000000e+00 2.6647616814145292e-01 4.9774358115176348e-01  0.0000000000000000e+00 2.6635577220120488e-01 4.9748006862456584e-01  0.0000000000000000e+00 2.6622951253118954e-01 4.9719009600034270e-01  0.0000000000000000e+00 2.6609621632577551e-01 4.9687537610564497e-01  0.0000000000000000e+00 2.6596219300518370e-01 4.9653185870900540e-01  0.0000000000000000e+00 2.6582948911446036e-01 4.9615895249226077e-01  0.0000000000000000e+00 2.6569111504138548e-01 4.9576360776508582e-01  0.0000000000000000e+00 2.6554913255526902e-01 4.9534505839685766e-01  0.0000000000000000e+00 2.6540603780929489e-01 4.9490233161698610e-01  0.0000000000000000e+00 2.6526354142712827e-01 4.9443547912229135e-01  0.0000000000000000e+00 2.6512316588919049e-01 4.9394476290549227e-01  0.0000000000000000e+00 2.6498408998374756e-01 4.9343186866741545e-01  0.0000000000000000e+00 2.6484846423377162e-01 4.9289670207286401e-01  0.0000000000000000e+00 2.6471648366864114e-01 4.9234032202734523e-01  0.0000000000000000e+00 2.6458839988866484e-01 4.9176371219529835e-01  0.0000000000000000e+00 2.6446531477072671e-01 4.9116744415075425e-01  0.0000000000000000e+00 2.6434462829362226e-01 4.9055382140674486e-01  0.0000000000000000e+00 2.6423129771308079e-01 4.8992155611857502e-01  0.0000000000000000e+00 2.6413224399486862e-01 4.8926898981093175e-01  0.0000000000000000e+00 2.6404056109798468e-01 4.8860034332864516e-01  0.0000000000000000e+00 2.6395974304767245e-01 4.8791513856288443e-01  0.0000000000000000e+00 2.6388657928807235e-01 4.8721573556733383e-01  0.0000000000000000e+00 2.6382357189164174e-01 4.8650221437287350e-01  0.0000000000000000e+00 2.6376655186821280e-01 4.8577655358773736e-01  0.0000000000000000e+00 2.6373337635576183e-01 4.8503492708793849e-01  0.0000000000000000e+00 2.6371822949373230e-01 4.8428004222638332e-01  0.0000000000000000e+00 2.6369917052515490e-01 4.8351835078054656e-01  0.0000000000000000e+00 2.6370504678497558e-01 4.8274366364232574e-01  0.0000000000000000e+00 2.6373045570123566e-01 4.8195853140354916e-01  0.0000000000000000e+00 2.6377863417902986e-01 4.8116327757907501e-01  0.0000000000000000e+00 2.6381997522579520e-01 4.8036391335618900e-01  0.0000000000000000e+00 2.6390577656813413e-01 4.7955293672829602e-01  0.0000000000000000e+00 2.6399201581232101e-01 4.7873808243788307e-01  0.0000000000000000e+00 2.6411039882802034e-01 4.7791547189391498e-01  0.0000000000000000e+00 2.6421941052424391e-01 4.7709085480610480e-01  0.0000000000000000e+00 2.6436603478868603e-01 4.7625972841152397e-01  0.0000000000000000e+00 2.6453972302570028e-01 4.7542445894713781e-01  0.0000000000000000e+00 2.6472810155813858e-01 4.7458674281332880e-01  0.0000000000000000e+00 2.6493836429982121e-01 4.7374677902776430e-01  0.0000000000000000e+00 2.6516612160712100e-01 4.7290545233466963e-01  0.0000000000000000e+00 2.6567517246380773e-01 4.7122099077252999e-01  0.0000000000000000e+00 2.6596782533485597e-01 4.7037920343198697e-01  0.0000000000000000e+00 2.6627353556160999e-01 4.6953842147284675e-01  0.0000000000000000e+00 2.6660340752839623e-01 4.6869952582640734e-01  0.0000000000000000e+00 2.6695122573295932e-01 4.6786290189286400e-01  0.0000000000000000e+00 2.6731880652007478e-01 4.6702922926483253e-01  0.0000000000000000e+00 2.6770517678086581e-01 4.6619903009729707e-01  0.0000000000000000e+00 2.6811113111216439e-01 4.6537295574709109e-01  0.0000000000000000e+00 2.6853681499289783e-01 4.6455165504330326e-01  0.0000000000000000e+00 2.6898268910159856e-01 4.6373587873641403e-01  0.0000000000000000e+00 2.6944407767500494e-01 4.6292552016159194e-01  0.0000000000000000e+00 2.6992888939756193e-01 4.6212280896640540e-01  0.0000000000000000e+00 2.7041976687846220e-01 4.6132466477122835e-01  0.0000000000000000e+00 2.7093025733175291e-01 4.6053474440404818e-01  0.0000000000000000e+00 2.7145931262604817e-01 4.5975353189940948e-01  0.0000000000000000e+00 2.7198439779658928e-01 4.5897505488024609e-01  0.0000000000000000e+00 2.7253364345130127e-01 4.5820819237980326e-01  0.0000000000000000e+00 2.7310375291868616e-01 4.5745320087661762e-01  0.0000000000000000e+00 2.7367729427174164e-01 4.5670505833766628e-01  0.0000000000000000e+00 2.7425951791313086e-01 4.5596571927156931e-01  0.0000000000000000e+00 2.7484973041852834e-01 4.5523604532849465e-01  0.0000000000000000e+00 2.7544927809820408e-01 4.5451732286931862e-01  0.0000000000000000e+00 2.7605513458509640e-01 4.5380896606381510e-01  0.0000000000000000e+00 2.7666483245217077e-01 4.5311034472767614e-01  0.0000000000000000e+00 2.7728371971794208e-01 4.5242656680982446e-01  0.0000000000000000e+00 2.7790223561660182e-01 4.5175166167611036e-01  0.0000000000000000e+00 2.7852081476715873e-01 4.5108715326533394e-01  0.0000000000000000e+00 2.7914482913341260e-01 4.5043942722892361e-01  0.0000000000000000e+00 2.7976522531803494e-01 4.4980146828475620e-01  0.0000000000000000e+00 2.8038285088820497e-01 4.4917517522260525e-01  0.0000000000000000e+00 2.8099721378474907e-01 4.4856200296950743e-01  0.0000000000000000e+00 2.8160761824040376e-01 4.4796322368325814e-01  0.0000000000000000e+00 2.8221182310833093e-01 4.4737797112444572e-01  0.0000000000000000e+00 2.8280819025338916e-01 4.4680510817589347e-01  0.0000000000000000e+00 2.8339546979267766e-01 4.4624309776074256e-01  0.0000000000000000e+00 2.8397378299503945e-01 4.4570196628537129e-01  0.0000000000000000e+00 2.8454053603225343e-01 4.4517498077436402e-01  0.0000000000000000e+00 2.8509455586707472e-01 4.4465290709083655e-01  0.0000000000000000e+00 2.8563500012037046e-01 4.4415136715874104e-01  0.0000000000000000e+00 2.8616016116408211e-01 4.4366637889791005e-01  0.0000000000000000e+00 2.8666954744707884e-01 4.4319381924804246e-01  0.0000000000000000e+00 2.8716126565582956e-01 4.4273771714697757e-01  0.0000000000000000e+00 2.8763537100409681e-01 4.4229487324911310e-01  0.0000000000000000e+00 2.8808829027591787e-01 4.4187151306662797e-01  0.0000000000000000e+00 2.8852212387388432e-01 4.4146052411566611e-01  0.0000000000000000e+00 2.8893346023547600e-01 4.4106695495314396e-01  0.0000000000000000e+00 2.8932181670267726e-01 4.4069048323742294e-01  0.0000000000000000e+00 2.8968862902145465e-01 4.4032643872080002e-01  0.0000000000000000e+00 2.9002920967565021e-01 4.3998228498378916e-01  0.0000000000000000e+00 2.9034416231037352e-01 4.3965528062494813e-01  0.0000000000000000e+00 2.9063551715308739e-01 4.3934128080848106e-01  0.0000000000000000e+00 2.9089929546816135e-01 4.3904560279886684e-01  0.0000000000000000e+00 2.9113249805032276e-01 4.3877194385978813e-01  0.0000000000000000e+00 2.9134103286842000e-01 4.3851068751718908e-01  0.0000000000000000e+00 2.9152284682603308e-01 4.3826428514827387e-01  0.0000000000000000e+00 2.9167316414015787e-01 4.3803981374438850e-01  0.0000000000000000e+00 2.8731025268311489e-01 4.4310849725515572e-01  0.0000000000000000e+00 2.6422730502878572e-01 4.8374460831989968e-01  0.0000000000000000e+00 2.8268739591745456e-01 4.4093799630075864e-01  0.0000000000000000e+00 2.6586643808586358e-01 4.7246769955434159e-01  0.0000000000000000e+00 2.9148510692025725e-01 4.3861744582152634e-01  0.0000000000000000e+00 2.6644055462480559e-01 4.9154196340755285e-01  0.0000000000000000e+00 2.7503221661438676e-01 4.4716767914665495e-01  0.0000000000000000e+00 2.6815343339076536e-01 4.5688843268917195e-01  0.0000000000000000e+00 2.6759057264361430e-01 4.9723390500039544e-01  0.0000000000000000e+00 2.6475547631558849e-01 4.8164227007101396e-01  0.0000000000000000e+00 2.8255492423122619e-01 4.4755968265999985e-01  0.0000000000000000e+00 2.6496566118875525e-01 4.9098466448462152e-01  0.0000000000000000e+00 2.6528625499876712e-01 4.8563881763774852e-01  0.0000000000000000e+00 2.7904537771958748e-01 4.5116281886748910e-01  0.0000000000000000e+00 2.6437914389682854e-01 4.7574033900491586e-01  0.0000000000000000e+00 2.8600891604275885e-01 4.3908204467036860e-01  0.0000000000000000e+00 2.6584773528581707e-01 4.9457741439943448e-01  0.0000000000000000e+00 2.6672377405597081e-01 4.9697621632364308e-01  0.0000000000000000e+00 2.8904281463720854e-01 4.3786633020791110e-01  0.0000000000000000e+00 2.7492125252289978e-01 4.5589118502999532e-01  0.0000000000000000e+00 2.6445332278780509e-01 4.7048903688399057e-01  0.0000000000000000e+00 2.7112479956760938e-01 4.6116756649658969e-01  0.0000000000000000e+00 2.9036239775028322e-01 4.3748250292383267e-01  0.0000000000000000e+00 2.6731722651560880e-01 4.9793718275826732e-01  0.0000000000000000e+00 2.6530902564391190e-01 4.6530852248156296e-01  0.0000000000000000e+00 2.6892994737449932e-01 4.6513377833349284e-01  0.0000000000000000e+00 2.9139488228244964e-01 4.3751907226160919e-01  0.0000000000000000e+00 2.8966816177525639e-01 4.4083652992840772e-01  0.0000000000000000e+00 2.6452153434113762e-01 4.7897044709096531e-01  0.0000000000000000e+00 2.6709726227041231e-01 4.9459863136511811e-01  0.0000000000000000e+00 2.7175431701150127e-01 4.5099341314265134e-01  0.0000000000000000e+00 2.7927430786031665e-01 4.4332223424521677e-01  0.0000000000000000e+00 2.6754346615013064e-01 4.9814530223916609e-01  0.0000000000000000e+00 2.6618462565102263e-01 4.6184004356907271e-01  0.0000000000000000e+00 2.6733218445763135e-01 4.6836052925494304e-01  0.0000000000000000e+00 2.9172108913836153e-01 4.3780980671992986e-01  0.0000000000000000e+00 2.6575508507797196e-01 4.8841581818910068e-01  0.0000000000000000e+00 2.6439229883833465e-01 4.8720344538102522e-01  0.0000000000000000e+00 2.9079139284453276e-01 4.3958001882147774e-01  0.0000000000000000e+00 2.8532974778839015e-01 4.4499639489343579e-01  0.0000000000000000e+00 2.6510457361916945e-01 4.7565405486793594e-01  0.0000000000000000e+00 2.6740297544285391e-01 4.9611214151293187e-01  0.0000000000000000e+00 2.6988463955655573e-01 4.5376231304792308e-01  0.0000000000000000e+00 2.8740003016697202e-01 4.3858241052759367e-01  0.0000000000000000e+00 2.7340352283765484e-01 4.4907509333237716e-01  0.0000000000000000e+00 2.6758373762221410e-01 4.9789530293525003e-01  0.0000000000000000e+00 2.6677944874341281e-01 4.9318804599416743e-01  0.0000000000000000e+00 2.6718548884841048e-01 4.5934378328403919e-01  0.0000000000000000e+00 2.6453622854651387e-01 4.7918460405863206e-01  0.0000000000000000e+00 2.8858658076436500e-01 4.4191946931858500e-01  0.0000000000000000e+00 2.8098223898369112e-01 4.4219503045085085e-01  0.0000000000000000e+00 2.7729856709001699e-01 4.5316880856131608e-01  0.0000000000000000e+00 2.6625312361633613e-01 4.9571439660226663e-01  0.0000000000000000e+00 2.7322172749195589e-01 4.5806278969618031e-01  0.0000000000000000e+00 2.6431733920676181e-01 4.8132560043901151e-01  0.0000000000000000e+00 2.7738327551527897e-01 4.4493942862083286e-01  0.0000000000