<?xml version="1.0"?>
<VTKFile type="UnstructuredGrid"  version="0.1"  >
<UnstructuredGrid>
<Piece  NumberOfPoints="4940" NumberOfCells="9650">
<Points>
<DataArray  type="Float64"  NumberOfComponents="3"  format="ascii">500 250 0  0 250 0  250 500 0  250 0 0  256.8885856082646 499.9050767557906 0  263.7719401218049 499.6203791065173 0  270.6448364229772 499.1461232471188 0  277.5020553257866 498.4826693209355 0  284.3383895508592 497.6305211460281 0  291.1486476865662 496.5903258312597 0  297.9276581259182 495.3628732847843 0  304.6702729675493 493.9490956196674 0  311.3713719748657 492.3500664368026 0  318.0258664141369 490.5670000199653 0  324.6287029687753 488.6012504015818 0  331.1748675330201 486.4543103455647 0  337.6593890460416 484.1278102064655 0  344.0773432429536 481.6235166997244 0  350.4238564271474 478.9433315480048 0  356.694109139292 476.0892900492477 0  362.88333985546 473.0635595140469 0  368.9868485575419 469.8684376402048 0  375.0000003153078 466.5063507640667 0  380.9182288257928 462.9798520074548 0  386.7370398729688 459.2916193419558 0  392.4520147244077 455.444453565817 0  398.0588135356345 451.4412761437442 0  403.5531785622926 447.285127045646 0  408.9309374414144 442.9791624087773 0  414.1880064015299 438.5266521049243 0  419.3203932989752 433.9309773069245 0  424.324200661095 429.1956279150535 0  429.1956286596235 424.3241998957182 0  433.9309780058756 419.3203925397119 0  438.5266527445345 414.1880056671062 0  442.9791630130591 408.9309367076756 0  447.2851276060475 403.5531778422888 0  451.4412766621026 398.0588128303826 0  455.4444540361634 392.4520140460735 0  459.2916197786263 386.7370392045948 0  462.9798524073514 380.9182281752347 0  466.5063511234856 374.9999996927758 0  469.8684379657123 368.9868479560565 0  473.0635598144817 362.8833392617846 0  476.0892903190255 356.6941085676214 0  478.9433317963513 350.4238558609745 0  481.6235169154735 344.0773427117675 0  484.12781039012 337.6593885555221 0  486.4543105028062 331.1748670749914 0  488.601250531677 324.6287025528375 0  490.5670001317469 318.0258660188321 0  492.3500665291326 311.3713716102628 0  493.949095695951 304.6702726271575 0  495.3628733416623 297.9276578347343 0  496.5903258712341 291.1486474470129 0  497.6305211749058 284.3383893426084 0  498.4826693388848 277.502055163614 0  499.1461232580606 270.6448362909296 0  499.6203791109319 263.7719400417897 0  499.9050767571306 256.8885855596534 0  499.9050767559877 243.1114143988867 0  499.6203791069493 236.2280598860241 0  499.1461232485393 229.3551635941651 0  498.4826693235677 222.4979446979962 0  497.6305211491849 215.6616104719064 0  496.5903258357701 208.8513523404629 0  495.3628732906988 202.0723419043604 0  493.9490956264813 195.3297270628552 0  492.3500664487791 188.6286280724281 0  490.5670000344809 181.9741336371959 0  488.6012504175981 175.3712970824318 0  486.4543103623226 168.8251325157939 0  484.1278102222298 162.3406109960628 0  481.6235167152198 155.9226567951971 0  478.9433315621651 149.5761436051346 0  476.0892900516498 143.3058908657982 0  473.063559513628 137.1166601437124 0  469.8684376406648 131.0131514433083 0  466.5063507675389 124.9999996907064 0  462.9798520124137 119.0817711822745 0  459.2916193464549 113.2629601339176 0  455.4444535642773 107.5479852733717 0  451.4412761528674 101.9411864767781 0  447.2851270583545 96.44682145403524 0  442.9791624165781 91.06906256805769 0  438.5266521117469 85.81199360630404 0  433.9309773156125 80.67960671046254 0  429.1956279150353 75.67579933888632 0  424.3241998888952 70.80437133373906 0  419.3203925223282 66.06902197812161 0  414.1880056411937 61.47334723289828 0  408.9309366751728 57.0208369601728 0  403.5531778009394 52.71487236176898 0  398.058812796452 48.55872331295853 0  392.4520140187753 44.55554594490843 0  386.7370391799677 40.70838020528396 0  380.9182281475119 37.02014757560744 0  374.9999996718656 33.49364886444181 0  368.9868479340393 30.13156202237255 0  362.8833392380029 26.93644017348339 0  356.6941085456942 23.91070967062674 0  350.4238558420009 21.0566681953261 0  344.0773426899492 18.37648307566465 0  337.6593885328982 15.87218960140942 0  331.1748670549786 13.54568949032341 0  324.6287025315056 11.39874946165088 0  318.0258660010876 9.432999863235466 0  311.3713716017894 7.649933468721599 0  304.6702726190621 6.050904302234756 0  297.9276578269805 4.637126656823085 0  291.148647441857 3.409674127905504 0  284.3383893425031 2.369478825079682 0  277.502055159398 1.517330660648639 0  270.6448362875833 0.853876741662134 0  263.7719400401456 0.3796208889774277 0  256.8885855592052 0.09492324285704967 0  243.1114143979462 0.09492324403817065 0  236.2280598850882 0.3796208931023841 0  229.3551635938215 0.8538767514891958 0  222.4979446968584 1.517330676558146 0  215.6616104703111 2.369478851036291 0  208.8513523382973 3.409674164591252 0  202.0723419066374 4.637126708856528 0  195.3297270659513 6.050904372824903 0  188.628628074828 7.649933550613184 0  181.9741336377093 9.432999965373938 0  175.3712970793675 11.39874958336037 0  168.8251325057572 13.54568964112298 0  162.340610986655 15.87218978129263 0  155.9226567874317 18.37648328793418 0  149.576143602509 21.05666843898663 0  143.3058908718157 23.91070994551046 0  137.1166601505524 26.93644048291054 0  131.0131514451933 30.13156235831508 0  124.9999996848412 33.49364923584736 0  119.0817711715717 37.0201479941652 0  113.2629601211624 40.70838066187849 0  107.5479852622251 44.55554644345162 0  101.9411864693332 48.55872385260452 0  96.44682143286516 52.71487295812284 0  91.06906254351222 57.02083760363669 0  85.81199358272519 61.4733479087879 0  80.67960667988106 66.06902271253972 0  75.67579930062769 70.80437212218331 0  70.80437129287643 75.67580015310926 0  66.06902193673014 80.67960752263491 0  61.47334718684866 85.81199441168215 0  57.02083692524275 91.0690633672404 0  52.71487232786438 96.44682224262129 0  48.55872328070024 101.941187247437 0  44.55554591578033 107.5479860232332 0  40.7083801742321 113.2629608675606 0  37.02014754791168 119.0817718975441 0  33.49364883372994 125.000000381329 0  30.13156199866361 131.0131521097709 0  26.9364401549829 137.1166607985551 0  23.91070965524918 143.3058914868915 0  21.05666818346614 149.576144185037 0  18.37648306853811 155.9226573275967 0  15.8721895918909 162.3406114925245 0  13.54568948170046 168.8251329701392 0  11.39874945301878 175.3712974960928 0  9.432999857087736 181.9741340206533 0  7.649933466342702 188.6286284076045 0  6.050904301250966 195.3297273853278 0  4.637126656808988 202.0723421730917 0  3.409674127767772 208.8513525589684 0  2.369478824521138 215.6616106615248 0  1.517330660909465 222.4979448382452 0  0.8538767414496533 229.355163714981 0  0.3796208887135322 236.2280599646376 0  0.09492324266324204 243.1114144478261 0  0.0949232442452228 256.8885856095658 0  0.3796208935834784 263.7719401236316 0  0.8538767530323526 270.6448364248016 0  1.517330679476544 277.5020553295092 0  2.369478854618649 284.3383895555228 0  3.409674170191892 291.1486476952655 0  4.6371267162381 297.9276581311522 0  6.050904381420935 304.6702729724059 0  7.649933562385399 311.3713719716595 0  9.43299997979841 318.0258664133013 0  11.3987495994252 324.6287029719946 0  13.54568965885832 331.174867545904 0  15.87218979367188 337.6593890464085 0  18.37648329843151 344.0773432384132 0  21.05666844777872 350.423856417535 0  23.91070995156048 356.6941091410045 0  26.93644048988043 362.8833398632205 0  30.13156235982007 368.9868485575877 0  33.49364924138357 375.0000003247478 0  37.0201480006036 380.9182288389023 0  40.70838066758398 386.7370398875706 0  44.55554644477201 392.4520147396792 0  48.55872386086904 398.0588135419111 0  52.71487295981296 403.5531785693063 0  57.02083760525949 408.9309374584583 0  61.47334790862246 414.1880064170849 0  66.06902271205095 419.320393319588 0  70.80437211216579 424.3242006890749 0  75.67580013809859 429.195628692521 0  80.6796075127923 433.930978054209 0  85.81199439754931 438.5266528008431 0  91.06906334717917 442.9791630582355 0  96.44682221438322 447.2851276501571 0  101.9411872243843 451.441276702356 0  107.5479859945825 455.4444540643537 0  113.2629608446994 459.2916198108319 0  119.0817718768376 462.9798524393601 0  125.0000003647644 466.5063511567065 0  131.0131521012763 469.8684379967393 0  137.1166607840049 473.0635598376539 0  143.3058914748804 476.0892903390826 0  149.5761441732679 478.9433318113714 0  155.9226573130112 481.6235169255377 0  162.3406114779862 484.1278104026658 0  168.8251329570439 486.4543105138039 0  175.3712974805475 488.601250542119 0  181.9741340135204 490.5670001408953 0  188.6286284005059 492.3500665318597 0  195.3297273788229 493.9490956972913 0  202.0723421640089 495.3628733414168 0  208.8513525529672 496.5903258712308 0  215.6616106544547 497.6305211744985 0  222.4979448327038 498.4826693384772 0  229.3551637102845 499.1461232581612 0  236.2280599621369 499.6203791111485 0  243.1114144470173 499.9050767573145 0  155.2373389820306 474.8197567317462 0  25.36256300907667 153.9152755065208 0  432.3709625126712 412.6214396304305 0  6.013151705810699 246.637913163471 0  246.6379131630491 493.986848294322 0  338.6995838441862 22.68244767887072 0  477.3175523131281 338.6995838660569 0  493.9868482700757 246.6379131399102 0  246.6201155078769 6.218451882810491 0  417.6179310263282 72.7156044707053 0  102.2232990934413 445.0100869616822 0  63.66330858966404 92.20354579482142 0  391.3105220491464 50.73522820883105 0  72.79295043967942 418.0702734974704 0  448.290574428537 108.25674339002 0  402.4604651193511 440.7462829841712 0  97.55317348421397 59.11376320116034 0  136.7376477664901 33.58246472647134 0  363.3288394375288 465.6947312928271 0  44.0678766556007 381.0860953771871 0  469.6905266180034 142.3890690100806 0  22.68244791668644 338.6995843487432 0  338.699584349159 477.317552078365 0  173.389488083762 18.6681884918202 0  483.4809734778481 179.7121987795732 0  13.50237455842738 306.4709525540879 0  305.9825168523021 487.24416992
[...]
<PointData  Vectors="f_12"> 
<DataArray  type="Float64"  Name="f_12"  NumberOfComponents="3" format="ascii">0.0000000000000000e+00 6.4812631737086567e-255 1.3944037321195495e+00  0.0000000000000000e+00 -3.1929010156787744e-250 1.3960310007484646e+00  0.0000000000000000e+00 -5.9995645203053379e-231 1.4326665881513643e+00  0.0000000000000000e+00 7.6375981736489320e-263 1.4080234287843769e+00  0.0000000000000000e+00 1.9628564830586417e-231 1.4327752767781807e+00  0.0000000000000000e+00 -3.7127609834451094e-232 1.4328341693490130e+00  0.0000000000000000e+00 1.7005530711972537e-233 1.4328464051541305e+00  0.0000000000000000e+00 -1.8271854763950284e-233 1.4328095845070503e+00  0.0000000000000000e+00 5.0645531533704876e-233 1.4327247070782718e+00  0.0000000000000000e+00 -1.2235462732332327e-233 1.4325919665943116e+00  0.0000000000000000e+00 2.5936610679904449e-234 1.4324112874276702e+00  0.0000000000000000e+00 1.8076570994839259e-234 1.4321833230048509e+00  0.0000000000000000e+00 -2.3282074728422539e-234 1.4319084244497513e+00  0.0000000000000000e+00 8.9335400976439971e-234 1.4315859269081479e+00  0.0000000000000000e+00 -6.7505215920731332e-234 1.4312166749653341e+00  0.0000000000000000e+00 -1.0239547057484553e-233 1.4308069225024920e+00  0.0000000000000000e+00 -1.7635422909158386e-233 1.4303469316298085e+00  0.0000000000000000e+00 9.9023717921658381e-234 1.4298469020440863e+00  0.0000000000000000e+00 -3.4501615151148988e-234 1.4293053292992424e+00  0.0000000000000000e+00 1.9123946137297016e-235 1.4287235773982707e+00  0.0000000000000000e+00 3.7737483339425566e-235 1.4281025257814557e+00  0.0000000000000000e+00 -2.6478426366483921e-235 1.4274419269045215e+00  0.0000000000000000e+00 2.9231502086460033e-236 1.4267474715414523e+00  0.0000000000000000e+00 1.5414114184549391e-237 1.4260184146898487e+00  0.0000000000000000e+00 -2.2472808777051289e-237 1.4252567963876974e+00  0.0000000000000000e+00 1.2050569443741107e-237 1.4244626565779315e+00  0.0000000000000000e+00 -3.8540087407269329e-238 1.4236414721772557e+00  0.0000000000000000e+00 -1.8086802481603218e-238 1.4227940905848846e+00  0.0000000000000000e+00 8.2968295892838807e-239 1.4219200926829969e+00  0.0000000000000000e+00 -2.9158243233700531e-239 1.4210245229689946e+00  0.0000000000000000e+00 -2.6608452974233617e-240 1.4201090031373982e+00  0.0000000000000000e+00 2.1640779556787950e-240 1.4191733640641124e+00  0.0000000000000000e+00 -9.4301592482399679e-241 1.4182235161071177e+00  0.0000000000000000e+00 1.6764912018952466e-241 1.4172592745973835e+00  0.0000000000000000e+00 -4.7788437274334781e-242 1.4162839116290387e+00  0.0000000000000000e+00 -1.9857231224492844e-242 1.4153012393773587e+00  0.0000000000000000e+00 6.0564627123259902e-243 1.4143094300530905e+00  0.0000000000000000e+00 -1.5901248720672740e-243 1.4133136009153993e+00  0.0000000000000000e+00 4.9357182626192739e-244 1.4123187972750011e+00  0.0000000000000000e+00 -1.1525053656778207e-245 1.4113246262661672e+00  0.0000000000000000e+00 -3.8555518710704489e-245 1.4103288918994119e+00  0.0000000000000000e+00 6.1794928979112553e-246 1.4093392249982901e+00  0.0000000000000000e+00 -7.1921430332059853e-247 1.4083619220755488e+00  0.0000000000000000e+00 2.3735548388654971e-247 1.4073917304555605e+00  0.0000000000000000e+00 -2.1558907145100978e-247 1.4064341266498057e+00  0.0000000000000000e+00 1.4270393708054870e-247 1.4054921660367634e+00  0.0000000000000000e+00 -3.4463953765399807e-248 1.4045654913978896e+00  0.0000000000000000e+00 1.0822221004554443e-248 1.4036558327709416e+00  0.0000000000000000e+00 -3.6460815104390422e-249 1.4027706256925558e+00  0.0000000000000000e+00 -4.2712060615846742e-251 1.4019090920790593e+00  0.0000000000000000e+00 -5.1103507707608907e-252 1.4010679257361229e+00  0.0000000000000000e+00 -9.1355579938250314e-251 1.4002574396338212e+00  0.0000000000000000e+00 4.6873027715041962e-252 1.3994695750091855e+00  0.0000000000000000e+00 -2.1973829979350644e-252 1.3987178858054692e+00  0.0000000000000000e+00 2.5839305462209835e-252 1.3979965011122226e+00  0.0000000000000000e+00 -1.3217694130548940e-252 1.3973051061627622e+00  0.0000000000000000e+00 7.8901050325363164e-253 1.3966497101021564e+00  0.0000000000000000e+00 -1.5757491824200839e-253 1.3960296194293380e+00  0.0000000000000000e+00 3.8808503513249170e-254 1.3954448116768547e+00  0.0000000000000000e+00 -1.2011487632399944e-254 1.3948862011054191e+00  0.0000000000000000e+00 -3.9822669670619679e-256 1.3939302678313583e+00  0.0000000000000000e+00 7.8891684495622391e-256 1.3935007791266441e+00  0.0000000000000000e+00 -3.6365342442275805e-257 1.3931051896162436e+00  0.0000000000000000e+00 2.3985699631057413e-257 1.3927610520912965e+00  0.0000000000000000e+00 -3.3565572226281207e-258 1.3924575514295841e+00  0.0000000000000000e+00 -1.5959080209883084e-257 1.3921942267745744e+00  0.0000000000000000e+00 1.4997486454970974e-257 1.3919712938576263e+00  0.0000000000000000e+00 -7.1925978437486665e-258 1.3917911117846842e+00  0.0000000000000000e+00 9.2716117395470263e-259 1.3916505792688032e+00  0.0000000000000000e+00 1.2889021192025077e-258 1.3915472019170374e+00  0.0000000000000000e+00 -2.0937360558434871e-259 1.3914899600016548e+00  0.0000000000000000e+00 -3.1896795688804305e-259 1.3914682906871163e+00  0.0000000000000000e+00 -3.7403609900940394e-260 1.3914823528415834e+00  0.0000000000000000e+00 7.1289083809295180e-260 1.3915408101484203e+00  0.0000000000000000e+00 -2.0814795496470143e-260 1.3916371568247745e+00  0.0000000000000000e+00 -8.3166831512272903e-261 1.3917680974115314e+00  0.0000000000000000e+00 1.1590604675481432e-260 1.3919332820910806e+00  0.0000000000000000e+00 1.7706420278683897e-261 1.3921306666928652e+00  0.0000000000000000e+00 5.3406130879941698e-262 1.3923623264570602e+00  0.0000000000000000e+00 -9.4332495308839647e-262 1.3926269272467269e+00  0.0000000000000000e+00 -3.7304727580731495e-262 1.3929116327848068e+00  0.0000000000000000e+00 1.5081111104334097e-262 1.3932352032878721e+00  0.0000000000000000e+00 -1.5137823444637187e-262 1.3935801033788009e+00  0.0000000000000000e+00 -6.0148632498541870e-263 1.3939535778538390e+00  0.0000000000000000e+00 -8.3483063075096857e-263 1.3943497116607959e+00  0.0000000000000000e+00 2.6709936670141455e-264 1.3947662587238421e+00  0.0000000000000000e+00 4.8288704715646569e-264 1.3952016112407435e+00  0.0000000000000000e+00 3.5424354767694434e-263 1.3956538397571758e+00  0.0000000000000000e+00 5.4480164846537855e-263 1.3961231707504498e+00  0.0000000000000000e+00 3.4568016139781847e-263 1.3966057796877405e+00  0.0000000000000000e+00 5.1175298041932402e-263 1.3971001435956341e+00  0.0000000000000000e+00 2.2264898189065184e-263 1.3976041814747009e+00  0.0000000000000000e+00 2.9630244462194201e-263 1.3981133795131757e+00  0.0000000000000000e+00 2.6384699190709622e-263 1.3986320940965218e+00  0.0000000000000000e+00 2.2615442855172594e-263 1.3991568243952246e+00  0.0000000000000000e+00 -1.3656023511942648e-263 1.3996781156737110e+00  0.0000000000000000e+00 -5.9682906110909628e-264 1.4002005742129862e+00  0.0000000000000000e+00 -4.5646428704763056e-264 1.4007241840499562e+00  0.0000000000000000e+00 -3.5352091249356130e-263 1.4012397175799955e+00  0.0000000000000000e+00 4.9153407914144251e-263 1.4017499905466810e+00  0.0000000000000000e+00 6.1153098368742677e-263 1.4022567335699119e+00  0.0000000000000000e+00 2.6379924332832764e-263 1.4027509362721384e+00  0.0000000000000000e+00 8.9329577090189277e-263 1.4032345565620719e+00  0.0000000000000000e+00 1.8955427277955882e-263 1.4037055215398764e+00  0.0000000000000000e+00 -1.3466684586874521e-262 1.4041619135382855e+00  0.0000000000000000e+00 -8.7783906036311497e-263 1.4046019558358815e+00  0.0000000000000000e+00 1.4833970052248578e-262 1.4050249481808124e+00  0.0000000000000000e+00 1.1473418706550724e-262 1.4054294884718088e+00  0.0000000000000000e+00 -1.8977623050722671e-263 1.4058127976556876e+00  0.0000000000000000e+00 1.8263633066855012e-262 1.4061741378181927e+00  0.0000000000000000e+00 1.7797386890848345e-262 1.4065143854304101e+00  0.0000000000000000e+00 -1.2583815376944089e-262 1.4068306774483501e+00  0.0000000000000000e+00 -1.6250244862165722e-262 1.4071225131872207e+00  0.0000000000000000e+00 5.9889806954909312e-263 1.4073878555939372e+00  0.0000000000000000e+00 1.0750253739340917e-262 1.4076269751322590e+00  0.0000000000000000e+00 5.3080788679531414e-263 1.4078390378403647e+00  0.0000000000000000e+00 -1.7583134682383396e-263 1.4081766781424518e+00  0.0000000000000000e+00 1.3451681543349421e-262 1.4083080206489058e+00  0.0000000000000000e+00 -5.1673860929282196e-263 1.4084069470915506e+00  0.0000000000000000e+00 2.0503506217312924e-263 1.4084759754850822e+00  0.0000000000000000e+00 5.0935628180750578e-263 1.4085160842498046e+00  0.0000000000000000e+00 -6.0399851524681660e-263 1.4085269608527542e+00  0.0000000000000000e+00 2.5773100684028989e-263 1.4085098874763091e+00  0.0000000000000000e+00 -6.8717363703507590e-264 1.4084631141595780e+00  0.0000000000000000e+00 7.1483147473595878e-263 1.4083883963861277e+00  0.0000000000000000e+00 1.3145891621041531e-262 1.4082831650288201e+00  0.0000000000000000e+00 4.3285181815570185e-263 1.4081538861949716e+00  0.0000000000000000e+00 1.4248452332782740e-263 1.4079963480842022e+00  0.0000000000000000e+00 1.7023093920080802e-262 1.4078132254097280e+00  0.0000000000000000e+00 1.0917449271127300e-263 1.4076039387884365e+00  0.0000000000000000e+00 -4.8473601068765177e-263 1.4073700627081360e+00  0.0000000000000000e+00 1.8019245628253552e-263 1.4071147215298443e+00  0.0000000000000000e+00 -6.8058393564621346e-263 1.4068359925607450e+00  0.0000000000000000e+00 3.4525843196653325e-262 1.4065363220501488e+00  0.0000000000000000e+00 -2.7346554333279274e-262 1.4062165405760922e+00  0.0000000000000000e+00 -2.4793084982712030e-262 1.4058783578719256e+00  0.0000000000000000e+00 5.0566671281466806e-262 1.4055232113135461e+00  0.0000000000000000e+00 3.7230923694741299e-263 1.4051540891462739e+00  0.0000000000000000e+00 1.5488984743230948e-261 1.4047701765848470e+00  0.0000000000000000e+00 -1.4799544375616655e-261 1.4043732664322086e+00  0.0000000000000000e+00 -2.0246952267834855e-261 1.4039658492719320e+00  0.0000000000000000e+00 6.8042915886414142e-261 1.4035493902223719e+00  0.0000000000000000e+00 -4.8588834446550695e-261 1.4031261331219098e+00  0.0000000000000000e+00 -1.1238198911204195e-260 1.4026975083428266e+00  0.0000000000000000e+00 3.1813855886755021e-260 1.4022656282388493e+00  0.0000000000000000e+00 -3.0744498777491243e-260 1.4018323605902088e+00  0.0000000000000000e+00 9.8267866821446881e-261 1.4013994707181368e+00  0.0000000000000000e+00 -5.6617822586268284e-261 1.4009677615098741e+00  0.0000000000000000e+00 -3.2760811797507412e-259 1.4005399603100166e+00  0.0000000000000000e+00 4.0631871915819007e-259 1.4001161768493851e+00  0.0000000000000000e+00 4.5407841975951758e-259 1.3997039244153580e+00  0.0000000000000000e+00 -2.0670131297126200e-258 1.3993010465638651e+00  0.0000000000000000e+00 2.4719003501425048e-258 1.3989101497625411e+00  0.0000000000000000e+00 -1.4738246225814815e-258 1.3985321213103068e+00  0.0000000000000000e+00 3.9251194940853888e-258 1.3981680896719988e+00  0.0000000000000000e+00 5.4550260375206745e-258 1.3978192380552383e+00  0.0000000000000000e+00 7.1109563244483172e-257 1.3974944641674742e+00  0.0000000000000000e+00 -4.9463097165928007e-257 1.3971906505514129e+00  0.0000000000000000e+00 3.1592899309767091e-256 1.3969019500865096e+00  0.0000000000000000e+00 -5.2228200850034239e-257 1.3966408287838266e+00  0.0000000000000000e+00 2.0500927866334027e-255 1.3964083278523172e+00  0.0000000000000000e+00 -1.3072502115024535e-255 1.3962031399525134e+00  0.0000000000000000e+00 3.1431065327726860e-254 1.3960154202065780e+00  0.0000000000000000e+00 -4.4820100295818467e-254 1.3958732697965779e+00  0.0000000000000000e+00 4.7359995941103904e-254 1.3957533736219092e+00  0.0000000000000000e+00 3.0423026066404843e-253 1.3956686563639804e+00  0.0000000000000000e+00 -1.3225338614993523e-252 1.3956077900732906e+00  0.0000000000000000e+00 1.8311950157064816e-252 1.3955885218071473e+00  0.0000000000000000e+00 -5.4833854237865621e-252 1.3956080241395366e+00  0.0000000000000000e+00 3.3091657578590977e-251 1.3956601453871105e+00  0.0000000000000000e+00 -6.2232079349062732e-251 1.3957456903336272e+00  0.0000000000000000e+00 1.4618266739445603e-250 1.3958688996632149e+00  0.0000000000000000e+00 -2.6150661997265185e-253 1.3962324367613896e+00  0.0000000000000000e+00 2.8065306473650849e-249 1.3964703300042947e+00  0.0000000000000000e+00 -1.0486063753206002e-248 1.3967424025851092e+00  0.0000000000000000e+00 2.6142495108599097e-248 1.3970543648885632e+00  0.0000000000000000e+00 -5.8062574844402136e-248 1.3974041801357939e+00  0.0000000000000000e+00 1.7354173367062536e-247 1.3977918672836998e+00  0.0000000000000000e+00 -6.6839684728477804e-247 1.3982159675529646e+00  0.0000000000000000e+00 2.0336800969620637e-246 1.3986775766630308e+00  0.0000000000000000e+00 -3.2152195578976471e-246 1.3991750369858653e+00  0.0000000000000000e+00 -2.2594563744994742e-246 1.3997075732077646e+00  0.0000000000000000e+00 8.3066255066946094e-246 1.4002739259238370e+00  0.0000000000000000e+00 1.5057602619615657e-244 1.4008772022933771e+00  0.0000000000000000e+00 -8.5156212303575819e-244 1.4015067867894175e+00  0.0000000000000000e+00 2.5351016399691241e-243 1.4021696384173334e+00  0.0000000000000000e+00 2.6960497015939911e-242 1.4028622260037724e+00  0.0000000000000000e+00 -9.6999319008822240e-242 1.4035774164314363e+00  0.0000000000000000e+00 1.7198272750132365e-241 1.4043227264588645e+00  0.0000000000000000e+00 -5.0562935304247885e-241 1.4050974226451349e+00  0.0000000000000000e+00 1.2968573390770915e-240 1.4058917040316010e+00  0.0000000000000000e+00 -2.3990779460007541e-241 1.4067080172843214e+00  0.0000000000000000e+00 3.6796278228820698e-240 1.4075449137612841e+00  0.0000000000000000e+00 -4.3565832109244231e-239 1.4083981735800868e+00  0.0000000000000000e+00 1.7425331827266353e-238 1.4092672066058078e+00  0.0000000000000000e+00 -8.2983388198688714e-238 1.4101485785892198e+00  0.0000000000000000e+00 2.2908974619570202e-237 1.4110455179358514e+00  0.0000000000000000e+00 -5.4515480578187884e-237 1.4119477362882211e+00  0.0000000000000000e+00 1.6346242150777904e-237 1.4128596069261115e+00  0.0000000000000000e+00 8.0095891504757433e-236 1.4137766506866221e+00  0.0000000000000000e+00 -3.9604583378099581e-235 1.4146943981894724e+00  0.0000000000000000e+00 1.3543528838255243e-234 1.4156128282468088e+00  0.0000000000000000e+00 -3.9852266709368436e-234 1.4165307655616679e+00  0.0000000000000000e+00 3.4622260441987770e-235 1.4174437304000895e+00  0.0000000000000000e+00 2.5407367456685507e-233 1.4183499553169376e+00  0.0000000000000000e+00 -1.5525630522104652e-232 1.4192465196043484e+00  0.0000000000000000e+00 3.1623410191505113e-232 1.4201319185594661e+00  0.0000000000000000e+00 4.3705113015433479e-232 1.4210059656095109e+00  0.0000000000000000e+00 -9.4907925658219243e-231 1.4218619616435781e+00  0.0000000000000000e+00 3.2238330852454110e-230 1.4227004578573668e+00  0.0000000000000000e+00 -1.0239689617039970e-229 1.4235194629281107e+00  0.0000000000000000e+00 -1.5278284788274085e-229 1.4243152460447941e+00  0.0000000000000000e+00 1.5536349669331021e-228 1.4250865944256699e+00  0.0000000000000000e+00 -5.4800072413452618e-228 1.4258318443152969e+00  0.0000000000000000e+00 1.1638131634862078e-227 1.4265480716893437e+00  0.0000000000000000e+00 -1.0008798394470998e-227 1.4272344350682034e+00  0.0000000000000000e+00 -3.9857868133787138e-227 1.4278877561597090e+00  0.0000000000000000e+00 3.0794909648474593e-229 1.4285072288585798e+00  0.0000000000000000e+00 1.5698867867318263e-228 1.4290913789888968e+00  0.0000000000000000e+00 -2.7867363517200850e-228 1.4296394682030977e+00  0.0000000000000000e+00 1.5962716878313179e-228 1.4301470121753606e+00  0.0000000000000000e+00 -5.4755967347875627e-229 1.4306135963322064e+00  0.0000000000000000e+00 1.2626682550477781e-229 1.4310406679842431e+00  0.0000000000000000e+00 1.5409200487459636e-230 1.4314242478930619e+00  0.0000000000000000e+00 -4.8379750309646990e-230 1.4317629997053265e+00  0.0000000000000000e+00 -5.7049252278805489e-230 1.4320574350995101e+00  0.0000000000000000e+00 3.0561358449778975e-230 1.4323065030598865e+00  0.0000000000000000e+00 3.8333634933301406e-232 1.4325087930685503e+00  0.0000000000000000e+00 4.0358931192298433e-228 1.4262049143258657e+00  0.0000000000000000e+00 2.9117053931610011e-257 1.3971405697995547e+00  0.0000000000000000e+00 -5.0995348848148175e-242 1.4167138584628856e+00  0.0000000000000000e+00 -2.4613463191500234e-250 1.3960100449813471e+00  0.0000000000000000e+00 9.8204216488287980e-231 1.4325694679742520e+00  0.0000000000000000e+00 -1.3471461751638050e-262 1.4034977113340170e+00  0.0000000000000000e+00 -8.6701239031393758e-249 1.4041554207618288e+00  0.0000000000000000e+00 -1.4671118419715020e-255 1.3942226311266159e+00  0.0000000000000000e+00 -8.7914154093719236e-263 1.4081199107997182e+00  0.0000000000000000e+00 -2.7141190422826481e-263 1.3964209724996779e+00  0.0000000000000000e+00 4.0088931613567104e-233 1.4187819604512804e+00  0.0000000000000000e+00 -1.0194733579320172e-259 1.4012191023562584e+00  0.0000000000000000e+00 -4.7933577969240454e-263 1.3989917246695991e+00  0.0000000000000000e+00 -5.0692048836164043e-236 1.4133798982729791e+00  0.0000000000000000e+00 1.8662764164104909e-262 1.3934722187863660e+00  0.0000000000000000e+00 -5.3546532535500393e-239 1.4223886970108932e+00  0.0000000000000000e+00 5.5680206279946571e-261 1.4042142670675981e+00  0.0000000000000000e+00 -2.3195051711067226e-263 1.4067070903455421e+00  0.0000000000000000e+00 1.2944004067389797e-235 1.4277289304898799e+00  0.0000000000000000e+00 1.3523372286191103e-240 1.4072223274514402e+00  0.0000000000000000e+00 -1.6981490618439275e-260 1.3919065662410581e+00  0.0000000000000000e+00 3.5872981017527478e-244 1.4018854967116698e+00  0.0000000000000000e+00 -6.4870161411002020e-234 1.4300843223883826e+00  0.0000000000000000e+00 5.6961750539930397e-263 1.4080759900093376e+00  0.0000000000000000e+00 -6.4897846513341557e-259 1.3915767404345736e+00  0.0000000000000000e+00 -3.6490116458815415e-246 1.3990039970217909e+00  0.0000000000000000e+00 2.8077803844703891e-235 1.4320512947304049e+00  0.0000000000000000e+00 -1.3714426336984286e-228 1.4298977201585357e+00  0.0000000000000000e+00 1.1771659331677575e-253 1.3958667064149297e+00  0.0000000000000000e+00 -9.5554647021699291e-263 1.4060144429231605e+00  0.0000000000000000e+00 8.5188188948428244e-252 1.3991497234732013e+00  0.0000000000000000e+00 8.5220308984581468e-245 1.4110243327246035e+00  0.0000000000000000e+00 -1.3437975694980358e-264 1.4085292448698870e+00  0.0000000000000000e+00 -2.9205513796767676e-257 1.3921323227348379e+00  0.0000000000000000e+00 -3.9103136940733241e-248 1.3972886894901948e+00  0.0000000000000000e+00 -6.5085030572467181e-233 1.4327482572153389e+00  0.0000000000000000e+00 4.4772221021809786e-263 1.4009970022033207e+00  0.0000000000000000e+00 -6.5835339928560944e-258 1.3987606977504150e+00  0.0000000000000000e+00 5.7813182872219549e-231 1.4315865908122016e+00  0.0000000000000000e+00 -6.6318894228467532e-231 1.4231050001362378e+00  0.0000000000000000e+00 -3.0668120078832444e-252 1.3956703194191238e+00  0.0000000000000000e+00 9.2865231465516223e-263 1.4072523157761967e+00  0.0000000000000000e+00 -4.8961962779535583e-254 1.3964703360868589e+00  0.0000000000000000e+00 -5.9524964639728025e-238 1.4248479037335504e+00  0.0000000000000000e+00 -1.0494325407081722e-250 1.4015539054602331e+00  0.0000000000000000e+00 1.4161636222866540e-262 1.4084599151559976e+00  0.0000000000000000e+00 -3.7152336855447868e-263 1.4048302426211527e+00  0.0000000000000000e+00 1.4120812932043589e-257 1.3930159538669831e+00  0.0000000000000000e+00 -5.3910005442125830e-263 1.3950608950644241e+00  0.0000000000000000e+00 2.7197544990176831e-227 1.4282152056628994e+00  0.000000000000000