<?xml version="1.0"?>
<VTKFile type="UnstructuredGrid"  version="0.1"  >
<UnstructuredGrid>
<Piece  NumberOfPoints="4940" NumberOfCells="9650">
<Points>
<DataArray  type="Float64"  NumberOfComponents="3"  format="ascii">500 250 0  0 250 0  250 500 0  250 0 0  256.8885856082646 499.9050767557906 0  263.7719401218049 499.6203791065173 0  270.6448364229772 499.1461232471188 0  277.5020553257866 498.4826693209355 0  284.3383895508592 497.6305211460281 0  291.1486476865662 496.5903258312597 0  297.9276581259182 495.3628732847843 0  304.6702729675493 493.9490956196674 0  311.3713719748657 492.3500664368026 0  318.0258664141369 490.5670000199653 0  324.6287029687753 488.6012504015818 0  331.1748675330201 486.4543103455647 0  337.6593890460416 484.1278102064655 0  344.0773432429536 481.6235166997244 0  350.4238564271474 478.9433315480048 0  356.694109139292 476.0892900492477 0  362.88333985546 473.0635595140469 0  368.9868485575419 469.8684376402048 0  375.0000003153078 466.5063507640667 0  380.9182288257928 462.9798520074548 0  386.7370398729688 459.2916193419558 0  392.4520147244077 455.444453565817 0  398.0588135356345 451.4412761437442 0  403.5531785622926 447.285127045646 0  408.9309374414144 442.9791624087773 0  414.1880064015299 438.5266521049243 0  419.3203932989752 433.9309773069245 0  424.324200661095 429.1956279150535 0  429.1956286596235 424.3241998957182 0  433.9309780058756 419.3203925397119 0  438.5266527445345 414.1880056671062 0  442.9791630130591 408.9309367076756 0  447.2851276060475 403.5531778422888 0  451.4412766621026 398.0588128303826 0  455.4444540361634 392.4520140460735 0  459.2916197786263 386.7370392045948 0  462.9798524073514 380.9182281752347 0  466.5063511234856 374.9999996927758 0  469.8684379657123 368.9868479560565 0  473.0635598144817 362.8833392617846 0  476.0892903190255 356.6941085676214 0  478.9433317963513 350.4238558609745 0  481.6235169154735 344.0773427117675 0  484.12781039012 337.6593885555221 0  486.4543105028062 331.1748670749914 0  488.601250531677 324.6287025528375 0  490.5670001317469 318.0258660188321 0  492.3500665291326 311.3713716102628 0  493.949095695951 304.6702726271575 0  495.3628733416623 297.9276578347343 0  496.5903258712341 291.1486474470129 0  497.6305211749058 284.3383893426084 0  498.4826693388848 277.502055163614 0  499.1461232580606 270.6448362909296 0  499.6203791109319 263.7719400417897 0  499.9050767571306 256.8885855596534 0  499.9050767559877 243.1114143988867 0  499.6203791069493 236.2280598860241 0  499.1461232485393 229.3551635941651 0  498.4826693235677 222.4979446979962 0  497.6305211491849 215.6616104719064 0  496.5903258357701 208.8513523404629 0  495.3628732906988 202.0723419043604 0  493.9490956264813 195.3297270628552 0  492.3500664487791 188.6286280724281 0  490.5670000344809 181.9741336371959 0  488.6012504175981 175.3712970824318 0  486.4543103623226 168.8251325157939 0  484.1278102222298 162.3406109960628 0  481.6235167152198 155.9226567951971 0  478.9433315621651 149.5761436051346 0  476.0892900516498 143.3058908657982 0  473.063559513628 137.1166601437124 0  469.8684376406648 131.0131514433083 0  466.5063507675389 124.9999996907064 0  462.9798520124137 119.0817711822745 0  459.2916193464549 113.2629601339176 0  455.4444535642773 107.5479852733717 0  451.4412761528674 101.9411864767781 0  447.2851270583545 96.44682145403524 0  442.9791624165781 91.06906256805769 0  438.5266521117469 85.81199360630404 0  433.9309773156125 80.67960671046254 0  429.1956279150353 75.67579933888632 0  424.3241998888952 70.80437133373906 0  419.3203925223282 66.06902197812161 0  414.1880056411937 61.47334723289828 0  408.9309366751728 57.0208369601728 0  403.5531778009394 52.71487236176898 0  398.058812796452 48.55872331295853 0  392.4520140187753 44.55554594490843 0  386.7370391799677 40.70838020528396 0  380.9182281475119 37.02014757560744 0  374.9999996718656 33.49364886444181 0  368.9868479340393 30.13156202237255 0  362.8833392380029 26.93644017348339 0  356.6941085456942 23.91070967062674 0  350.4238558420009 21.0566681953261 0  344.0773426899492 18.37648307566465 0  337.6593885328982 15.87218960140942 0  331.1748670549786 13.54568949032341 0  324.6287025315056 11.39874946165088 0  318.0258660010876 9.432999863235466 0  311.3713716017894 7.649933468721599 0  304.6702726190621 6.050904302234756 0  297.9276578269805 4.637126656823085 0  291.148647441857 3.409674127905504 0  284.3383893425031 2.369478825079682 0  277.502055159398 1.517330660648639 0  270.6448362875833 0.853876741662134 0  263.7719400401456 0.3796208889774277 0  256.8885855592052 0.09492324285704967 0  243.1114143979462 0.09492324403817065 0  236.2280598850882 0.3796208931023841 0  229.3551635938215 0.8538767514891958 0  222.4979446968584 1.517330676558146 0  215.6616104703111 2.369478851036291 0  208.8513523382973 3.409674164591252 0  202.0723419066374 4.637126708856528 0  195.3297270659513 6.050904372824903 0  188.628628074828 7.649933550613184 0  181.9741336377093 9.432999965373938 0  175.3712970793675 11.39874958336037 0  168.8251325057572 13.54568964112298 0  162.340610986655 15.87218978129263 0  155.9226567874317 18.37648328793418 0  149.576143602509 21.05666843898663 0  143.3058908718157 23.91070994551046 0  137.1166601505524 26.93644048291054 0  131.0131514451933 30.13156235831508 0  124.9999996848412 33.49364923584736 0  119.0817711715717 37.0201479941652 0  113.2629601211624 40.70838066187849 0  107.5479852622251 44.55554644345162 0  101.9411864693332 48.55872385260452 0  96.44682143286516 52.71487295812284 0  91.06906254351222 57.02083760363669 0  85.81199358272519 61.4733479087879 0  80.67960667988106 66.06902271253972 0  75.67579930062769 70.80437212218331 0  70.80437129287643 75.67580015310926 0  66.06902193673014 80.67960752263491 0  61.47334718684866 85.81199441168215 0  57.02083692524275 91.0690633672404 0  52.71487232786438 96.44682224262129 0  48.55872328070024 101.941187247437 0  44.55554591578033 107.5479860232332 0  40.7083801742321 113.2629608675606 0  37.02014754791168 119.0817718975441 0  33.49364883372994 125.000000381329 0  30.13156199866361 131.0131521097709 0  26.9364401549829 137.1166607985551 0  23.91070965524918 143.3058914868915 0  21.05666818346614 149.576144185037 0  18.37648306853811 155.9226573275967 0  15.8721895918909 162.3406114925245 0  13.54568948170046 168.8251329701392 0  11.39874945301878 175.3712974960928 0  9.432999857087736 181.9741340206533 0  7.649933466342702 188.6286284076045 0  6.050904301250966 195.3297273853278 0  4.637126656808988 202.0723421730917 0  3.409674127767772 208.8513525589684 0  2.369478824521138 215.6616106615248 0  1.517330660909465 222.4979448382452 0  0.8538767414496533 229.355163714981 0  0.3796208887135322 236.2280599646376 0  0.09492324266324204 243.1114144478261 0  0.0949232442452228 256.8885856095658 0  0.3796208935834784 263.7719401236316 0  0.8538767530323526 270.6448364248016 0  1.517330679476544 277.5020553295092 0  2.369478854618649 284.3383895555228 0  3.409674170191892 291.1486476952655 0  4.6371267162381 297.9276581311522 0  6.050904381420935 304.6702729724059 0  7.649933562385399 311.3713719716595 0  9.43299997979841 318.0258664133013 0  11.3987495994252 324.6287029719946 0  13.54568965885832 331.174867545904 0  15.87218979367188 337.6593890464085 0  18.37648329843151 344.0773432384132 0  21.05666844777872 350.423856417535 0  23.91070995156048 356.6941091410045 0  26.93644048988043 362.8833398632205 0  30.13156235982007 368.9868485575877 0  33.49364924138357 375.0000003247478 0  37.0201480006036 380.9182288389023 0  40.70838066758398 386.7370398875706 0  44.55554644477201 392.4520147396792 0  48.55872386086904 398.0588135419111 0  52.71487295981296 403.5531785693063 0  57.02083760525949 408.9309374584583 0  61.47334790862246 414.1880064170849 0  66.06902271205095 419.320393319588 0  70.80437211216579 424.3242006890749 0  75.67580013809859 429.195628692521 0  80.6796075127923 433.930978054209 0  85.81199439754931 438.5266528008431 0  91.06906334717917 442.9791630582355 0  96.44682221438322 447.2851276501571 0  101.9411872243843 451.441276702356 0  107.5479859945825 455.4444540643537 0  113.2629608446994 459.2916198108319 0  119.0817718768376 462.9798524393601 0  125.0000003647644 466.5063511567065 0  131.0131521012763 469.8684379967393 0  137.1166607840049 473.0635598376539 0  143.3058914748804 476.0892903390826 0  149.5761441732679 478.9433318113714 0  155.9226573130112 481.6235169255377 0  162.3406114779862 484.1278104026658 0  168.8251329570439 486.4543105138039 0  175.3712974805475 488.601250542119 0  181.9741340135204 490.5670001408953 0  188.6286284005059 492.3500665318597 0  195.3297273788229 493.9490956972913 0  202.0723421640089 495.3628733414168 0  208.8513525529672 496.5903258712308 0  215.6616106544547 497.6305211744985 0  222.4979448327038 498.4826693384772 0  229.3551637102845 499.1461232581612 0  236.2280599621369 499.6203791111485 0  243.1114144470173 499.9050767573145 0  155.2373389820306 474.8197567317462 0  25.36256300907667 153.9152755065208 0  432.3709625126712 412.6214396304305 0  6.013151705810699 246.637913163471 0  246.6379131630491 493.986848294322 0  338.6995838441862 22.68244767887072 0  477.3175523131281 338.6995838660569 0  493.9868482700757 246.6379131399102 0  246.6201155078769 6.218451882810491 0  417.6179310263282 72.7156044707053 0  102.2232990934413 445.0100869616822 0  63.66330858966404 92.20354579482142 0  391.3105220491464 50.73522820883105 0  72.79295043967942 418.0702734974704 0  448.290574428537 108.25674339002 0  402.4604651193511 440.7462829841712 0  97.55317348421397 59.11376320116034 0  136.7376477664901 33.58246472647134 0  363.3288394375288 465.6947312928271 0  44.0678766556007 381.0860953771871 0  469.6905266180034 142.3890690100806 0  22.68244791668644 338.6995843487432 0  338.699584349159 477.317552078365 0  173.389488083762 18.6681884918202 0  483.4809734778481 179.7121987795732 0  13.50237455842738 306.4709525540879 0  305.9825168523021 487.24416992
[...]
<PointData  Vectors="f_12"> 
<DataArray  type="Float64"  Name="f_12"  NumberOfComponents="3" format="ascii">0.0000000000000000e+00 5.8061147925310785e-01 2.0903984909466139e-01  0.0000000000000000e+00 5.1324668180729360e-01 1.9846260828830242e-01  0.0000000000000000e+00 6.4518747498433471e-01 2.2347329308248148e-01  0.0000000000000000e+00 3.9994753177072756e-01 1.8678504600427395e-01  0.0000000000000000e+00 6.4579995807982238e-01 2.2364170335287203e-01  0.0000000000000000e+00 6.4634137602294750e-01 2.2379130871543751e-01  0.0000000000000000e+00 6.4684725651253849e-01 2.2393157041778688e-01  0.0000000000000000e+00 6.4728974341573620e-01 2.2405471959135020e-01  0.0000000000000000e+00 6.4768132299120096e-01 2.2416404779122584e-01  0.0000000000000000e+00 6.4801996818319518e-01 2.2425884087232731e-01  0.0000000000000000e+00 6.4830602000455673e-01 2.2433909065098734e-01  0.0000000000000000e+00 6.4854222067428313e-01 2.2440546038481879e-01  0.0000000000000000e+00 6.4872545252325653e-01 2.2445700109641001e-01  0.0000000000000000e+00 6.4885289368905508e-01 2.2449286849389610e-01  0.0000000000000000e+00 6.4890357635327500e-01 2.2450719091253174e-01  0.0000000000000000e+00 6.4894660856727948e-01 2.2451914136671372e-01  0.0000000000000000e+00 6.4887285921967630e-01 2.2449837221205823e-01  0.0000000000000000e+00 6.4878134005371224e-01 2.2447243480994758e-01  0.0000000000000000e+00 6.4862521118996797e-01 2.2442834552717206e-01  0.0000000000000000e+00 6.4841588732321886e-01 2.2436932200504597e-01  0.0000000000000000e+00 6.4815617290063454e-01 2.2429620144350837e-01  0.0000000000000000e+00 6.4781691421833565e-01 2.2420106430367703e-01  0.0000000000000000e+00 6.4741696101326340e-01 2.2408922720208496e-01  0.0000000000000000e+00 6.4698131486996369e-01 2.2396769154249829e-01  0.0000000000000000e+00 6.4648225184572228e-01 2.2382899515022775e-01  0.0000000000000000e+00 6.4590719470377367e-01 2.2366993658740653e-01  0.0000000000000000e+00 6.4525347070250416e-01 2.2349001819072542e-01  0.0000000000000000e+00 6.4456397894583206e-01 2.2330110467581202e-01  0.0000000000000000e+00 6.4381164844728112e-01 2.2309610521571460e-01  0.0000000000000000e+00 6.4296894700449281e-01 2.2286795160194994e-01  0.0000000000000000e+00 6.4208047129027002e-01 2.2262888711777856e-01  0.0000000000000000e+00 6.4111770141163271e-01 2.2237163860207948e-01  0.0000000000000000e+00 6.4008649441418042e-01 2.2209811305623395e-01  0.0000000000000000e+00 6.3899940474766070e-01 2.2181191870810876e-01  0.0000000000000000e+00 6.3781819162655262e-01 2.2150357652323202e-01  0.0000000000000000e+00 6.3657435667470341e-01 2.2118168684743381e-01  0.0000000000000000e+00 6.3527893165499716e-01 2.2084934800739051e-01  0.0000000000000000e+00 6.3389172089824886e-01 2.2049687527911538e-01  0.0000000000000000e+00 6.3241229574515545e-01 2.2012479699980769e-01  0.0000000000000000e+00 6.3087691008391955e-01 2.1974253445051464e-01  0.0000000000000000e+00 6.2928498543884404e-01 2.1935032792314579e-01  0.0000000000000000e+00 6.2760038417218067e-01 2.1893991487184292e-01  0.0000000000000000e+00 6.2582637917750028e-01 2.1851263313968441e-01  0.0000000000000000e+00 6.2398741000029490e-01 2.1807496484710986e-01  0.0000000000000000e+00 6.2206368310197835e-01 2.1762268432940055e-01  0.0000000000000000e+00 6.2006278226627243e-01 2.1715812438493509e-01  0.0000000000000000e+00 6.1798723059856131e-01 2.1668235772646410e-01  0.0000000000000000e+00 6.1584038548481757e-01 2.1619674088236371e-01  0.0000000000000000e+00 6.1358845978719079e-01 2.1569432600144356e-01  0.0000000000000000e+00 6.1127151387715428e-01 2.1518439273287485e-01  0.0000000000000000e+00 6.0887411474334430e-01 2.1466433437650081e-01  0.0000000000000000e+00 6.0640077141917670e-01 2.1413530018571264e-01  0.0000000000000000e+00 6.0384947335599093e-01 2.1359769817695301e-01  0.0000000000000000e+00 6.0120864568871157e-01 2.1304947609705163e-01  0.0000000000000000e+00 5.9849506604001856e-01 2.1249464122790712e-01  0.0000000000000000e+00 5.9571194816026729e-01 2.1193440727890153e-01  0.0000000000000000e+00 5.9284344118051258e-01 2.1136583143285848e-01  0.0000000000000000e+00 5.8990275414959070e-01 2.1079232757766497e-01  0.0000000000000000e+00 5.8689520090987657e-01 2.1021468095773746e-01  0.0000000000000000e+00 5.8384091287369744e-01 2.0963685065950660e-01  0.0000000000000000e+00 5.7740787719581754e-01 2.0845273361040700e-01  0.0000000000000000e+00 5.7412103689286020e-01 2.0786232033796023e-01  0.0000000000000000e+00 5.7077327957511459e-01 2.0727109531793142e-01  0.0000000000000000e+00 5.6734573252388132e-01 2.0667549404210797e-01  0.0000000000000000e+00 5.6386773837428117e-01 2.0608214158181593e-01  0.0000000000000000e+00 5.6033254092129547e-01 2.0548848192584271e-01  0.0000000000000000e+00 5.5674133778282908e-01 2.0489649754456080e-01  0.0000000000000000e+00 5.5309840022182866e-01 2.0430601369471116e-01  0.0000000000000000e+00 5.4941119545047667e-01 2.0371884552178701e-01  0.0000000000000000e+00 5.4568280170288930e-01 2.0313553490236130e-01  0.0000000000000000e+00 5.4190383009132659e-01 2.0255442508580943e-01  0.0000000000000000e+00 5.3810472099331697e-01 2.0198079247811393e-01  0.0000000000000000e+00 5.3425980655554162e-01 2.0141017026892469e-01  0.0000000000000000e+00 5.3038954345711753e-01 2.0084602134255136e-01  0.0000000000000000e+00 5.2649517213991925e-01 2.0028832567074992e-01  0.0000000000000000e+00 5.2258367509975867e-01 1.9973821077141268e-01  0.0000000000000000e+00 5.1865731580487684e-01 1.9919567619815925e-01  0.0000000000000000e+00 5.1471863611449642e-01 1.9866113841900285e-01  0.0000000000000000e+00 5.1077142966019473e-01 1.9813492962349025e-01  0.0000000000000000e+00 5.0682543410505787e-01 1.9761820449690917e-01  0.0000000000000000e+00 5.0288129487869260e-01 1.9711071163362667e-01  0.0000000000000000e+00 4.9894956997323042e-01 1.9661408568665995e-01  0.0000000000000000e+00 4.9502090028496698e-01 1.9612652989710830e-01  0.0000000000000000e+00 4.9112173102809431e-01 1.9565113938384712e-01  0.0000000000000000e+00 4.8724049358153959e-01 1.9518631862316194e-01  0.0000000000000000e+00 4.8338593762752663e-01 1.9473285397267692e-01  0.0000000000000000e+00 4.7956268478351316e-01 1.9429094337694419e-01  0.0000000000000000e+00 4.7577678429964371e-01 1.9386113216612644e-01  0.0000000000000000e+00 4.7203540102197428e-01 1.9344362314275104e-01  0.0000000000000000e+00 4.6833729071606073e-01 1.9303830134274286e-01  0.0000000000000000e+00 4.6469167919024024e-01 1.9264558155684830e-01  0.0000000000000000e+00 4.6110169901661219e-01 1.9226551153051979e-01  0.0000000000000000e+00 4.5756563224509877e-01 1.9189773093113738e-01  0.0000000000000000e+00 4.5409568696070740e-01 1.9154287234843351e-01  0.0000000000000000e+00 4.5071018625352893e-01 1.9120247744408575e-01  0.0000000000000000e+00 4.4738181791339404e-01 1.9087353747189573e-01  0.0000000000000000e+00 4.4412265650887611e-01 1.9055680551160495e-01  0.0000000000000000e+00 4.4096684427786481e-01 1.9025512901072156e-01  0.0000000000000000e+00 4.3787818546448010e-01 1.8996467478584339e-01  0.0000000000000000e+00 4.3485668335754629e-01 1.8968521094579202e-01  0.0000000000000000e+00 4.3195989544872376e-01 1.8942131917935506e-01  0.0000000000000000e+00 4.2915067396408585e-01 1.8916976922261053e-01  0.0000000000000000e+00 4.2644031013911171e-01 1.8893040811774250e-01  0.0000000000000000e+00 4.2382072318136932e-01 1.8870273193351075e-01  0.0000000000000000e+00 4.2130737850103062e-01 1.8848741311047731e-01  0.0000000000000000e+00 4.1889740169632739e-01 1.8828394866308301e-01  0.0000000000000000e+00 4.1659727907392313e-01 1.8809242501610587e-01  0.0000000000000000e+00 4.1441167249234145e-01 1.8791285913552616e-01  0.0000000000000000e+00 4.1233072433760320e-01 1.8774417964078821e-01  0.0000000000000000e+00 4.1035668672809311e-01 1.8758611557464713e-01  0.0000000000000000e+00 4.0850032997118912e-01 1.8743923025619241e-01  0.0000000000000000e+00 4.0677142572943648e-01 1.8730402538104413e-01  0.0000000000000000e+00 4.0516869716042253e-01 1.8718001973903053e-01  0.0000000000000000e+00 4.0367429088810719e-01 1.8706560899023714e-01  0.0000000000000000e+00 4.0230918710474345e-01 1.8696202931422151e-01  0.0000000000000000e+00 4.0106157727400649e-01 1.8686823056480142e-01  0.0000000000000000e+00 3.9899550811144152e-01 1.8671463790975656e-01  0.0000000000000000e+00 3.9801209283954286e-01 1.8664215190488631e-01  0.0000000000000000e+00 3.9733052734185587e-01 1.8659226717012270e-01  0.0000000000000000e+00 3.9671231206835122e-01 1.8654725529596575e-01  0.0000000000000000e+00 3.9621096974677328e-01 1.8651086815324963e-01  0.0000000000000000e+00 3.9585021882495097e-01 1.8648477248484924e-01  0.0000000000000000e+00 3.9562161527326117e-01 1.8646822257248313e-01  0.0000000000000000e+00 3.9551005491327584e-01 1.8646015401352548e-01  0.0000000000000000e+00 3.9552970676887872e-01 1.8646152853592882e-01  0.0000000000000000e+00 3.9561499894140417e-01 1.8646773359058572e-01  0.0000000000000000e+00 3.9591969147235645e-01 1.8648963065550814e-01  0.0000000000000000e+00 3.9632161951314976e-01 1.8651866550789953e-01  0.0000000000000000e+00 3.9684651505586299e-01 1.8655674944521961e-01  0.0000000000000000e+00 3.9746819785609905e-01 1.8660203090369318e-01  0.0000000000000000e+00 3.9822610106500755e-01 1.8665750623897426e-01  0.0000000000000000e+00 3.9913163668231538e-01 1.8672415272000115e-01  0.0000000000000000e+00 4.0014280827451992e-01 1.8679910620304002e-01  0.0000000000000000e+00 4.0126971547350809e-01 1.8688323588866007e-01  0.0000000000000000e+00 4.0251068088333569e-01 1.8697663505080209e-01  0.0000000000000000e+00 4.0386879641645490e-01 1.8707975247581474e-01  0.0000000000000000e+00 4.0535423758204042e-01 1.8719363611806888e-01  0.0000000000000000e+00 4.0695830622400359e-01 1.8731783367809102e-01  0.0000000000000000e+00 4.0866437457513277e-01 1.8745134519957982e-01  0.0000000000000000e+00 4.1047562993376147e-01 1.8759472007871325e-01  0.0000000000000000e+00 4.1239710720612344e-01 1.8774860787585612e-01  0.0000000000000000e+00 4.1442545535014669e-01 1.8791307351994405e-01  0.0000000000000000e+00 4.1655973804446411e-01 1.8808833122455085e-01  0.0000000000000000e+00 4.1879529709744873e-01 1.8827435803398287e-01  0.0000000000000000e+00 4.2113203763147861e-01 1.8847145806917848e-01  0.0000000000000000e+00 4.2356514924072847e-01 1.8867957723372369e-01  0.0000000000000000e+00 4.2609230282347510e-01 1.8889884817623037e-01  0.0000000000000000e+00 4.2870408127055698e-01 1.8912884437866234e-01  0.0000000000000000e+00 4.3139961790859077e-01 1.8936969724158825e-01  0.0000000000000000e+00 4.3418363479377658e-01 1.8962234215993440e-01  0.0000000000000000e+00 4.3705690080498860e-01 1.8988702597712140e-01  0.0000000000000000e+00 4.4000848243051766e-01 1.9016324153680997e-01  0.0000000000000000e+00 4.4303237626773057e-01 1.9045071379439435e-01  0.0000000000000000e+00 4.4612356124763886e-01 1.9074931982481141e-01  0.0000000000000000e+00 4.4927965458114594e-01 1.9105907604612848e-01  0.0000000000000000e+00 4.5249334572519517e-01 1.9137970884814426e-01  0.0000000000000000e+00 4.5579159132318192e-01 1.9171417781931691e-01  0.0000000000000000e+00 4.5913482598690791e-01 1.9205873388718256e-01  0.0000000000000000e+00 4.6251530327659418e-01 1.9241312038944233e-01  0.0000000000000000e+00 4.6595720309194610e-01 1.9277974128025438e-01  0.0000000000000000e+00 4.6944706823109261e-01 1.9315783809320880e-01  0.0000000000000000e+00 4.7298001368215509e-01 1.9354699474727594e-01  0.0000000000000000e+00 4.7652743924529145e-01 1.9394430689733408e-01  0.0000000000000000e+00 4.8013143490701871e-01 1.9435479315423965e-01  0.0000000000000000e+00 4.8375562411651740e-01 1.9477480506916550e-01  0.0000000000000000e+00 4.8739921702381678e-01 1.9520358787809572e-01  0.0000000000000000e+00 4.9105867110842549e-01 1.9564234360331392e-01  0.0000000000000000e+00 4.9474629949314808e-01 1.9609136871120564e-01  0.0000000000000000e+00 4.9844368574668130e-01 1.9654954206379485e-01  0.0000000000000000e+00 5.0214440676716610e-01 1.9701580118099174e-01  0.0000000000000000e+00 5.0584768743202979e-01 1.9749036050840330e-01  0.0000000000000000e+00 5.0954639370587218e-01 1.9797224090212603e-01  0.0000000000000000e+00 5.1694160689223712e-01 1.9896053803116498e-01  0.0000000000000000e+00 5.2061623207856034e-01 1.9946394965148756e-01  0.0000000000000000e+00 5.2427854897593773e-01 1.9997433169782780e-01  0.0000000000000000e+00 5.2792007271125130e-01 2.0049018918871461e-01  0.0000000000000000e+00 5.3153815502466573e-01 2.0101139698578430e-01  0.0000000000000000e+00 5.3513126294786773e-01 2.0153761776743201e-01  0.0000000000000000e+00 5.3869382269171528e-01 2.0206811048557152e-01  0.0000000000000000e+00 5.4222381728176439e-01 2.0260243496824393e-01  0.0000000000000000e+00 5.4571807044896214e-01 2.0314014785383533e-01  0.0000000000000000e+00 5.4917303103756587e-01 2.0368050051929909e-01  0.0000000000000000e+00 5.5258465604974516e-01 2.0422300692041806e-01  0.0000000000000000e+00 5.5594932767542471e-01 2.0476656643210384e-01  0.0000000000000000e+00 5.5926889066698637e-01 2.0531165500529827e-01  0.0000000000000000e+00 5.6254474105802066e-01 2.0585824425354246e-01  0.0000000000000000e+00 5.6575650463352445e-01 2.0640263745438819e-01  0.0000000000000000e+00 5.6893205292815652e-01 2.0694958603096222e-01  0.0000000000000000e+00 5.7205450599495733e-01 2.0749590320881220e-01  0.0000000000000000e+00 5.7510087605700821e-01 2.0803708252137759e-01  0.0000000000000000e+00 5.7809564241481393e-01 2.0857775253615607e-01  0.0000000000000000e+00 5.8103092677604296e-01 2.0911542105388750e-01  0.0000000000000000e+00 5.8390779451025276e-01 2.0965069314197887e-01  0.0000000000000000e+00 5.8672015828214186e-01 2.1018181549833623e-01  0.0000000000000000e+00 5.8947327948259376e-01 2.1070945266325869e-01  0.0000000000000000e+00 5.9216557014288607e-01 2.1123315038690099e-01  0.0000000000000000e+00 5.9478523937528138e-01 2.1175012892491829e-01  0.0000000000000000e+00 5.9734008387110593e-01 2.1226160811561309e-01  0.0000000000000000e+00 5.9984034653438612e-01 2.1276923476505746e-01  0.0000000000000000e+00 6.0225752630214258e-01 2.1326688755603815e-01  0.0000000000000000e+00 6.0462056775827833e-01 2.1376016576846249e-01  0.0000000000000000e+00 6.0691627794126490e-01 2.1424581883172852e-01  0.0000000000000000e+00 6.0914313053910818e-01 2.1472324119040598e-01  0.0000000000000000e+00 6.1130393399927208e-01 2.1519256889672853e-01  0.0000000000000000e+00 6.1339814706789897e-01 2.1565328788279839e-01  0.0000000000000000e+00 6.1543043947523057e-01 2.1610602812267082e-01  0.0000000000000000e+00 6.1740681986320378e-01 2.1655176572176352e-01  0.0000000000000000e+00 6.1930181225589087e-01 2.1698434550890805e-01  0.0000000000000000e+00 6.2112705405696078e-01 2.1740594131068611e-01  0.0000000000000000e+00 6.2291393531883432e-01 2.1782339869666886e-01  0.0000000000000000e+00 6.2462448800598591e-01 2.1822756008176539e-01  0.0000000000000000e+00 6.2626247543747238e-01 2.1861888414998165e-01  0.0000000000000000e+00 6.2784656200290156e-01 2.1900133716596201e-01  0.0000000000000000e+00 6.2936640760313345e-01 2.1937205305519208e-01  0.0000000000000000e+00 6.3083306137636730e-01 2.1973344808796841e-01  0.0000000000000000e+00 6.3222399330164614e-01 2.2007948143503558e-01  0.0000000000000000e+00 6.3356616741062877e-01 2.2041657614967908e-01  0.0000000000000000e+00 6.3484415352315049e-01 2.2074043753442882e-01  0.0000000000000000e+00 6.3606828353887035e-01 2.2105335176870489e-01  0.0000000000000000e+00 6.3724292778051261e-01 2.2135613428355774e-01  0.0000000000000000e+00 6.3834493050988983e-01 2.2164262067920484e-01  0.0000000000000000e+00 6.3938669427768047e-01 2.2191549233894553e-01  0.0000000000000000e+00 6.4038903274562864e-01 2.2217991761904074e-01  0.0000000000000000e+00 6.4132553822546545e-01 2.2242876423483679e-01  0.0000000000000000e+00 6.4220058610706965e-01 2.2266287373085419e-01  0.0000000000000000e+00 6.4302571467012215e-01 2.2288496826247015e-01  0.0000000000000000e+00 6.4379975024874136e-01 2.2309454240119223e-01  0.0000000000000000e+00 6.4451127769955152e-01 2.2328828579052540e-01  0.0000000000000000e+00 6.2995055741590844e-01 2.1951625855557011e-01  0.0000000000000000e+00 4.6037865199758021e-01 1.9218832724344087e-01  0.0000000000000000e+00 6.3815266202311194e-01 2.2159122351392252e-01  0.0000000000000000e+00 5.1141513951005291e-01 1.9821898213446368e-01  0.0000000000000000e+00 6.4464684344706535e-01 2.2332606255257753e-01  0.0000000000000000e+00 4.2534614790775360e-01 1.8883459602707625e-01  0.0000000000000000e+00 6.1673062512755583e-01 2.1639802236542277e-01  0.0000000000000000e+00 5.7891947941430111e-01 2.0872765325887124e-01  0.0000000000000000e+00 3.9972727131121899e-01 1.8676817791672598e-01  0.0000000000000000e+00 4.7023817494593440e-01 1.9324565163732563e-01  0.0000000000000000e+00 6.1421872107131159e-01 2.1583592333800408e-01  0.0000000000000000e+00 4.2760210344845678e-01 1.8903109607563492e-01  0.0000000000000000e+00 4.5215400667701816e-01 1.9134676616005158e-01  0.0000000000000000e+00 6.0100454660282387e-01 2.1300856407026189e-01  0.0000000000000000e+00 4.9695985476445403e-01 1.9636610397297624e-01  0.0000000000000000e+00 6.4402717645084151e-01 2.2315546834442773e-01  0.0000000000000000e+00 4.1156782516826995e-01 1.8768160200875392e-01  0.0000000000000000e+00 4.0095149408924974e-01 1.8685898948493643e-01  0.0000000000000000e+00 6.4775525805254963e-01 2.2418463270892044e-01  0.0000000000000000e+00 5.8255931339602918e-01 2.0939928711730851e-01  0.0000000000000000e+00 5.2051125106968532e-01 1.9945077398323094e-01  0.0000000000000000e+00 5.6083070462640827e-01 2.0557128372463748e-01  0.0000000000000000e+00 6.4863382267523639e-01 2.2443167656806762e-01  0.0000000000000000e+00 3.9645219634518547e-01 1.8652761371473014e-01  0.0000000000000000e+00 5.4333217603599082e-01 2.0277310699126566e-01  0.0000000000000000e+00 5.4392257203686478e-01 2.0286307412501031e-01  0.0000000000000000e+00 6.4839563098497854e-01 2.2436507367083447e-01  0.0000000000000000e+00 6.3762094524831525e-01 2.2145489979074506e-01  0.0000000000000000e+00 4.8201917557081020e-01 1.9457270230803880e-01  0.0000000000000000e+00 4.1159324555670479e-01 1.8768450764688094e-01  0.0000000000000000e+00 6.0237265095768344e-01 2.1329059444106105e-01  0.0000000000000000e+00 6.3019259139831973e-01 2.1957408449922047e-01  0.0000000000000000e+00 3.9594693565575362e-01 1.8649130433804420e-01  0.0000000000000000e+00 5.5821291466025447e-01 2.0513815998094129e-01  0.0000000000000000e+00 5.2970750769352559e-01 2.0074678839280682e-01  0.0000000000000000e+00 6.4728426656564375e-01 2.2405399555208655e-01  0.0000000000000000e+00 4.3966698955217287e-01 1.9013224694695735e-01  0.0000000000000000e+00 4.4473017135836457e-01 1.9061395640106404e-01  0.0000000000000000e+00 6.4158805635556104e-01 2.2249960383881415e-01  0.0000000000000000e+00 6.2356205039817525e-01 2.1797653282752383e-01  0.0000000000000000e+00 4.9703321755279134e-01 1.9637384597634575e-01  0.0000000000000000e+00 4.0480140150738680e-01 1.8715135237422589e-01  0.0000000000000000e+00 5.9156001121456270e-01 2.1111500204055189e-01  0.0000000000000000e+00 6.4590683595329634e-01 2.2367097906547542e-01  0.0000000000000000e+00 6.0989148276044158e-01 2.1488477718738455e-01  0.0000000000000000e+00 3.9719522860228823e-01 1.8658203208779456e-01  0.0000000000000000e+00 4.1800087969155286e-01 1.8820861730914565e-01  0.0000000000000000e+00 5.6891213981425659e-01 2.0694666599677641e-01  0.0000000000000000e+00 4.8137929816953745e-01 1.9449990523136890e-01  0.0000000000000000e+00 6.3405238405428199e-01 2.2054026484083669e-01  0.0000000000000000e+00 6.3432766249042349e-01 2.2060804760130481e-01  0.0000000000000000e+00 5.9348596027430456e-01 2.1149326383840492e-01  0.0000000000000000e+00 4.0640985637041055e-01 1.8727481060245338e-01  0.0000000000000000e+00 5.7369398360372892e-01 2.0778640819985011e-01  0.0000000000000000e+00 4.7131311536262699e-01 1.9336258164559419e-01  0.0000000000000000e+00 6.2472263830739472e-01 2.1824998665410431e-01  0.0000000000