<?xml version="1.0"?>
<VTKFile type="UnstructuredGrid"  version="0.1"  >
<UnstructuredGrid>
<Piece  NumberOfPoints="4940" NumberOfCells="9650">
<Points>
<DataArray  type="Float64"  NumberOfComponents="3"  format="ascii">500 250 0  0 250 0  250 500 0  250 0 0  256.8885856082646 499.9050767557906 0  263.7719401218049 499.6203791065173 0  270.6448364229772 499.1461232471188 0  277.5020553257866 498.4826693209355 0  284.3383895508592 497.6305211460281 0  291.1486476865662 496.5903258312597 0  297.9276581259182 495.3628732847843 0  304.6702729675493 493.9490956196674 0  311.3713719748657 492.3500664368026 0  318.0258664141369 490.5670000199653 0  324.6287029687753 488.6012504015818 0  331.1748675330201 486.4543103455647 0  337.6593890460416 484.1278102064655 0  344.0773432429536 481.6235166997244 0  350.4238564271474 478.9433315480048 0  356.694109139292 476.0892900492477 0  362.88333985546 473.0635595140469 0  368.9868485575419 469.8684376402048 0  375.0000003153078 466.5063507640667 0  380.9182288257928 462.9798520074548 0  386.7370398729688 459.2916193419558 0  392.4520147244077 455.444453565817 0  398.0588135356345 451.4412761437442 0  403.5531785622926 447.285127045646 0  408.9309374414144 442.9791624087773 0  414.1880064015299 438.5266521049243 0  419.3203932989752 433.9309773069245 0  424.324200661095 429.1956279150535 0  429.1956286596235 424.3241998957182 0  433.9309780058756 419.3203925397119 0  438.5266527445345 414.1880056671062 0  442.9791630130591 408.9309367076756 0  447.2851276060475 403.5531778422888 0  451.4412766621026 398.0588128303826 0  455.4444540361634 392.4520140460735 0  459.2916197786263 386.7370392045948 0  462.9798524073514 380.9182281752347 0  466.5063511234856 374.9999996927758 0  469.8684379657123 368.9868479560565 0  473.0635598144817 362.8833392617846 0  476.0892903190255 356.6941085676214 0  478.9433317963513 350.4238558609745 0  481.6235169154735 344.0773427117675 0  484.12781039012 337.6593885555221 0  486.4543105028062 331.1748670749914 0  488.601250531677 324.6287025528375 0  490.5670001317469 318.0258660188321 0  492.3500665291326 311.3713716102628 0  493.949095695951 304.6702726271575 0  495.3628733416623 297.9276578347343 0  496.5903258712341 291.1486474470129 0  497.6305211749058 284.3383893426084 0  498.4826693388848 277.502055163614 0  499.1461232580606 270.6448362909296 0  499.6203791109319 263.7719400417897 0  499.9050767571306 256.8885855596534 0  499.9050767559877 243.1114143988867 0  499.6203791069493 236.2280598860241 0  499.1461232485393 229.3551635941651 0  498.4826693235677 222.4979446979962 0  497.6305211491849 215.6616104719064 0  496.5903258357701 208.8513523404629 0  495.3628732906988 202.0723419043604 0  493.9490956264813 195.3297270628552 0  492.3500664487791 188.6286280724281 0  490.5670000344809 181.9741336371959 0  488.6012504175981 175.3712970824318 0  486.4543103623226 168.8251325157939 0  484.1278102222298 162.3406109960628 0  481.6235167152198 155.9226567951971 0  478.9433315621651 149.5761436051346 0  476.0892900516498 143.3058908657982 0  473.063559513628 137.1166601437124 0  469.8684376406648 131.0131514433083 0  466.5063507675389 124.9999996907064 0  462.9798520124137 119.0817711822745 0  459.2916193464549 113.2629601339176 0  455.4444535642773 107.5479852733717 0  451.4412761528674 101.9411864767781 0  447.2851270583545 96.44682145403524 0  442.9791624165781 91.06906256805769 0  438.5266521117469 85.81199360630404 0  433.9309773156125 80.67960671046254 0  429.1956279150353 75.67579933888632 0  424.3241998888952 70.80437133373906 0  419.3203925223282 66.06902197812161 0  414.1880056411937 61.47334723289828 0  408.9309366751728 57.0208369601728 0  403.5531778009394 52.71487236176898 0  398.058812796452 48.55872331295853 0  392.4520140187753 44.55554594490843 0  386.7370391799677 40.70838020528396 0  380.9182281475119 37.02014757560744 0  374.9999996718656 33.49364886444181 0  368.9868479340393 30.13156202237255 0  362.8833392380029 26.93644017348339 0  356.6941085456942 23.91070967062674 0  350.4238558420009 21.0566681953261 0  344.0773426899492 18.37648307566465 0  337.6593885328982 15.87218960140942 0  331.1748670549786 13.54568949032341 0  324.6287025315056 11.39874946165088 0  318.0258660010876 9.432999863235466 0  311.3713716017894 7.649933468721599 0  304.6702726190621 6.050904302234756 0  297.9276578269805 4.637126656823085 0  291.148647441857 3.409674127905504 0  284.3383893425031 2.369478825079682 0  277.502055159398 1.517330660648639 0  270.6448362875833 0.853876741662134 0  263.7719400401456 0.3796208889774277 0  256.8885855592052 0.09492324285704967 0  243.1114143979462 0.09492324403817065 0  236.2280598850882 0.3796208931023841 0  229.3551635938215 0.8538767514891958 0  222.4979446968584 1.517330676558146 0  215.6616104703111 2.369478851036291 0  208.8513523382973 3.409674164591252 0  202.0723419066374 4.637126708856528 0  195.3297270659513 6.050904372824903 0  188.628628074828 7.649933550613184 0  181.9741336377093 9.432999965373938 0  175.3712970793675 11.39874958336037 0  168.8251325057572 13.54568964112298 0  162.340610986655 15.87218978129263 0  155.9226567874317 18.37648328793418 0  149.576143602509 21.05666843898663 0  143.3058908718157 23.91070994551046 0  137.1166601505524 26.93644048291054 0  131.0131514451933 30.13156235831508 0  124.9999996848412 33.49364923584736 0  119.0817711715717 37.0201479941652 0  113.2629601211624 40.70838066187849 0  107.5479852622251 44.55554644345162 0  101.9411864693332 48.55872385260452 0  96.44682143286516 52.71487295812284 0  91.06906254351222 57.02083760363669 0  85.81199358272519 61.4733479087879 0  80.67960667988106 66.06902271253972 0  75.67579930062769 70.80437212218331 0  70.80437129287643 75.67580015310926 0  66.06902193673014 80.67960752263491 0  61.47334718684866 85.81199441168215 0  57.02083692524275 91.0690633672404 0  52.71487232786438 96.44682224262129 0  48.55872328070024 101.941187247437 0  44.55554591578033 107.5479860232332 0  40.7083801742321 113.2629608675606 0  37.02014754791168 119.0817718975441 0  33.49364883372994 125.000000381329 0  30.13156199866361 131.0131521097709 0  26.9364401549829 137.1166607985551 0  23.91070965524918 143.3058914868915 0  21.05666818346614 149.576144185037 0  18.37648306853811 155.9226573275967 0  15.8721895918909 162.3406114925245 0  13.54568948170046 168.8251329701392 0  11.39874945301878 175.3712974960928 0  9.432999857087736 181.9741340206533 0  7.649933466342702 188.6286284076045 0  6.050904301250966 195.3297273853278 0  4.637126656808988 202.0723421730917 0  3.409674127767772 208.8513525589684 0  2.369478824521138 215.6616106615248 0  1.517330660909465 222.4979448382452 0  0.8538767414496533 229.355163714981 0  0.3796208887135322 236.2280599646376 0  0.09492324266324204 243.1114144478261 0  0.0949232442452228 256.8885856095658 0  0.3796208935834784 263.7719401236316 0  0.8538767530323526 270.6448364248016 0  1.517330679476544 277.5020553295092 0  2.369478854618649 284.3383895555228 0  3.409674170191892 291.1486476952655 0  4.6371267162381 297.9276581311522 0  6.050904381420935 304.6702729724059 0  7.649933562385399 311.3713719716595 0  9.43299997979841 318.0258664133013 0  11.3987495994252 324.6287029719946 0  13.54568965885832 331.174867545904 0  15.87218979367188 337.6593890464085 0  18.37648329843151 344.0773432384132 0  21.05666844777872 350.423856417535 0  23.91070995156048 356.6941091410045 0  26.93644048988043 362.8833398632205 0  30.13156235982007 368.9868485575877 0  33.49364924138357 375.0000003247478 0  37.0201480006036 380.9182288389023 0  40.70838066758398 386.7370398875706 0  44.55554644477201 392.4520147396792 0  48.55872386086904 398.0588135419111 0  52.71487295981296 403.5531785693063 0  57.02083760525949 408.9309374584583 0  61.47334790862246 414.1880064170849 0  66.06902271205095 419.320393319588 0  70.80437211216579 424.3242006890749 0  75.67580013809859 429.195628692521 0  80.6796075127923 433.930978054209 0  85.81199439754931 438.5266528008431 0  91.06906334717917 442.9791630582355 0  96.44682221438322 447.2851276501571 0  101.9411872243843 451.441276702356 0  107.5479859945825 455.4444540643537 0  113.2629608446994 459.2916198108319 0  119.0817718768376 462.9798524393601 0  125.0000003647644 466.5063511567065 0  131.0131521012763 469.8684379967393 0  137.1166607840049 473.0635598376539 0  143.3058914748804 476.0892903390826 0  149.5761441732679 478.9433318113714 0  155.9226573130112 481.6235169255377 0  162.3406114779862 484.1278104026658 0  168.8251329570439 486.4543105138039 0  175.3712974805475 488.601250542119 0  181.9741340135204 490.5670001408953 0  188.6286284005059 492.3500665318597 0  195.3297273788229 493.9490956972913 0  202.0723421640089 495.3628733414168 0  208.8513525529672 496.5903258712308 0  215.6616106544547 497.6305211744985 0  222.4979448327038 498.4826693384772 0  229.3551637102845 499.1461232581612 0  236.2280599621369 499.6203791111485 0  243.1114144470173 499.9050767573145 0  155.2373389820306 474.8197567317462 0  25.36256300907667 153.9152755065208 0  432.3709625126712 412.6214396304305 0  6.013151705810699 246.637913163471 0  246.6379131630491 493.986848294322 0  338.6995838441862 22.68244767887072 0  477.3175523131281 338.6995838660569 0  493.9868482700757 246.6379131399102 0  246.6201155078769 6.218451882810491 0  417.6179310263282 72.7156044707053 0  102.2232990934413 445.0100869616822 0  63.66330858966404 92.20354579482142 0  391.3105220491464 50.73522820883105 0  72.79295043967942 418.0702734974704 0  448.290574428537 108.25674339002 0  402.4604651193511 440.7462829841712 0  97.55317348421397 59.11376320116034 0  136.7376477664901 33.58246472647134 0  363.3288394375288 465.6947312928271 0  44.0678766556007 381.0860953771871 0  469.6905266180034 142.3890690100806 0  22.68244791668644 338.6995843487432 0  338.699584349159 477.317552078365 0  173.389488083762 18.6681884918202 0  483.4809734778481 179.7121987795732 0  13.50237455842738 306.4709525540879 0  305.9825168523021 487.24416992
[...]
<PointData  Vectors="f_12"> 
<DataArray  type="Float64"  Name="f_12"  NumberOfComponents="3" format="ascii">0.0000000000000000e+00 3.1252057212625500e-01 7.3003102850218737e-01  0.0000000000000000e+00 9.1810578801442194e-02 6.5581280844398004e-01  0.0000000000000000e+00 4.3478633033508096e-01 6.6984035171897993e-01  0.0000000000000000e+00 7.1610840934353803e-01 3.8793056929064240e-01  0.0000000000000000e+00 4.3638635438448348e-01 6.6879757246670257e-01  0.0000000000000000e+00 4.3781452950298488e-01 6.6786135354365117e-01  0.0000000000000000e+00 4.3919113211178501e-01 6.6695425576313971e-01  0.0000000000000000e+00 4.4042127224313815e-01 6.6614013653160720e-01  0.0000000000000000e+00 4.4154867290257455e-01 6.6539082129732530e-01  0.0000000000000000e+00 4.4256741950913903e-01 6.6471097363557663e-01  0.0000000000000000e+00 4.4347975152624103e-01 6.6410015370806996e-01  0.0000000000000000e+00 4.4429622093257010e-01 6.6355178478630139e-01  0.0000000000000000e+00 4.4500735872555153e-01 6.6307275518389297e-01  0.0000000000000000e+00 4.4560635944059029e-01 6.6266840437869867e-01  0.0000000000000000e+00 4.4602196872130551e-01 6.6238735968242490e-01  0.0000000000000000e+00 4.4648728070353572e-01 6.6207200598984661e-01  0.0000000000000000e+00 4.4664194929495449e-01 6.6196708278894023e-01  0.0000000000000000e+00 4.4681620921025839e-01 6.6184863729701138e-01  0.0000000000000000e+00 4.4685375053961751e-01 6.6182295691953474e-01  0.0000000000000000e+00 4.4679586603900251e-01 6.6186198141146468e-01  0.0000000000000000e+00 4.4665474547038742e-01 6.6195704813048450e-01  0.0000000000000000e+00 4.4633302921843460e-01 6.6217480063650669e-01  0.0000000000000000e+00 4.4589179547817365e-01 6.6247336364625453e-01  0.0000000000000000e+00 4.4542385899443188e-01 6.6278893715539011e-01  0.0000000000000000e+00 4.4483308960774992e-01 6.6318698760672901e-01  0.0000000000000000e+00 4.4408167883265193e-01 6.6369213446179465e-01  0.0000000000000000e+00 4.4315451499959818e-01 6.6431385921846087e-01  0.0000000000000000e+00 4.4220569934018572e-01 6.6494777364817170e-01  0.0000000000000000e+00 4.4114596921636939e-01 6.6565316981001976e-01  0.0000000000000000e+00 4.3987281035738812e-01 6.6649753202683915e-01  0.0000000000000000e+00 4.3854699827430094e-01 6.6737271419146316e-01  0.0000000000000000e+00 4.3707267253594617e-01 6.6834074984969150e-01  0.0000000000000000e+00 4.3546280995898251e-01 6.6939243727388842e-01  0.0000000000000000e+00 4.3376851836701985e-01 6.7049229378500119e-01  0.0000000000000000e+00 4.3185123309155282e-01 6.7172858987049078e-01  0.0000000000000000e+00 4.2981922086586299e-01 6.7302988888670934e-01  0.0000000000000000e+00 4.2772326470636168e-01 6.7436117025609277e-01  0.0000000000000000e+00 4.2540672177160410e-01 6.7582032579607598e-01  0.0000000000000000e+00 4.2285881990926899e-01 6.7741090649105395e-01  0.0000000000000000e+00 4.2021876136601188e-01 6.7904232308529999e-01  0.0000000000000000e+00 4.1749588654748282e-01 6.8070678455100087e-01  0.0000000000000000e+00 4.1453689247138670e-01 6.8249510062298380e-01  0.0000000000000000e+00 4.1133716687036337e-01 6.8440526155689352e-01  0.0000000000000000e+00 4.0800519472581048e-01 6.8636739841933903e-01  0.0000000000000000e+00 4.0445048887933421e-01 6.8843032148351468e-01  0.0000000000000000e+00 4.0069603622653288e-01 6.9057478300836805e-01  0.0000000000000000e+00 3.9674985658952955e-01 6.9279036587048726e-01  0.0000000000000000e+00 3.9261782994073846e-01 6.9506945909948725e-01  0.0000000000000000e+00 3.8814427864304807e-01 6.9748522841774607e-01  0.0000000000000000e+00 3.8347741249454209e-01 6.9995257265576694e-01  0.0000000000000000e+00 3.7857251432470479e-01 7.0248248222734977e-01  0.0000000000000000e+00 3.7339680107871431e-01 7.0508516091039897e-01  0.0000000000000000e+00 3.6797686774149019e-01 7.0773253720592466e-01  0.0000000000000000e+00 3.6219137118514683e-01 7.1047202761501516e-01  0.0000000000000000e+00 3.5612989817109642e-01 7.1324269966271381e-01  0.0000000000000000e+00 3.4979989656703253e-01 7.1602692276298852e-01  0.0000000000000000e+00 3.4309241299214938e-01 7.1885148159658774e-01  0.0000000000000000e+00 3.3605687642979648e-01 7.2167683374860114e-01  0.0000000000000000e+00 3.2871337830414132e-01 7.2446045799294090e-01  0.0000000000000000e+00 3.2113701833501163e-01 7.2719727182132254e-01  0.0000000000000000e+00 3.0412343056652791e-01 7.3258231279164887e-01  0.0000000000000000e+00 2.9520791977831895e-01 7.3503826816378459e-01  0.0000000000000000e+00 2.8592948033166388e-01 7.3730643977955335e-01  0.0000000000000000e+00 2.7609250641275718e-01 7.3935282898934385e-01  0.0000000000000000e+00 2.6584962689453034e-01 7.4110945692385066e-01  0.0000000000000000e+00 2.5520010646649099e-01 7.4247634311200417e-01  0.0000000000000000e+00 2.4411801434708902e-01 7.4338935427376429e-01  0.0000000000000000e+00 2.3261365527336997e-01 7.4373557389761247e-01  0.0000000000000000e+00 2.2075481328457322e-01 7.4340546701621546e-01  0.0000000000000000e+00 2.0857971195315261e-01 7.4227734331609918e-01  0.0000000000000000e+00 1.9599904479673511e-01 7.4015297950238590e-01  0.0000000000000000e+00 1.8326642130161089e-01 7.3693528280639653e-01  0.0000000000000000e+00 1.7036314688389775e-01 7.3238789076355482e-01  0.0000000000000000e+00 1.5733733850701440e-01 7.2628676739758791e-01  0.0000000000000000e+00 1.4437809471613106e-01 7.1840246408736097e-01  0.0000000000000000e+00 1.3164394092189194e-01 7.0852905429491464e-01  0.0000000000000000e+00 1.1930807077741098e-01 6.9641317694134386e-01  0.0000000000000000e+00 1.0753518856482976e-01 6.8182550074728820e-01  0.0000000000000000e+00 9.6502865016971140e-02 6.6453639090341499e-01  0.0000000000000000e+00 8.6428201862309165e-02 6.4443936143913894e-01  0.0000000000000000e+00 7.7506410201538728e-02 6.2163874113926065e-01  0.0000000000000000e+00 6.9747703379675757e-02 5.9572576154818435e-01  0.0000000000000000e+00 6.3295694881143630e-02 5.6713381963907739e-01  0.0000000000000000e+00 5.8154422813008283e-02 5.3609889351435991e-01  0.0000000000000000e+00 5.4317908691696823e-02 5.0296050855156582e-01  0.0000000000000000e+00 5.1761656633463160e-02 4.6815101932896702e-01  0.0000000000000000e+00 5.0505773045420740e-02 4.3204088876622804e-01  0.0000000000000000e+00 5.0706598402772508e-02 3.9506201904018817e-01  0.0000000000000000e+00 5.2709629668167279e-02 3.5767730988643076e-01  0.0000000000000000e+00 5.7350486388934953e-02 3.2017398962627214e-01  0.0000000000000000e+00 6.6292353086765093e-02 2.8318748784765396e-01  0.0000000000000000e+00 8.3429857563009774e-02 2.4774335253368587e-01  0.0000000000000000e+00 1.1873334985441063e-01 2.1661289596928077e-01  0.0000000000000000e+00 1.9725662015698536e-01 1.9648036401407876e-01  0.0000000000000000e+00 3.7669182408866647e-01 2.0123004787324869e-01  0.0000000000000000e+00 6.2938313067262885e-01 2.5268841833008709e-01  0.0000000000000000e+00 6.9359972667765091e-01 3.6849078695068771e-01  0.0000000000000000e+00 5.6856959702572429e-01 5.4384695229342972e-01  0.0000000000000000e+00 3.0989958109054677e-01 7.1245932897629916e-01  0.0000000000000000e+00 1.6029981086138209e-01 5.2464016397423308e-01  0.0000000000000000e+00 1.8624631497592722e-01 2.4314879054476579e-01  0.0000000000000000e+00 1.1374921796060161e-01 2.2885981449930451e-01  0.0000000000000000e+00 6.3207968834986819e-02 3.2655445132653504e-01  0.0000000000000000e+00 6.0487618308210270e-02 5.1242266016012517e-01  0.0000000000000000e+00 1.3018375592231668e-01 7.0856276406698593e-01  0.0000000000000000e+00 2.8698552617072809e-01 7.3779148862219757e-01  0.0000000000000000e+00 4.2427619468045835e-01 6.7548987932544902e-01  0.0000000000000000e+00 5.1322064102870180e-01 6.1081623313919642e-01  0.0000000000000000e+00 5.7043030973343323e-01 5.5991472304679513e-01  0.0000000000000000e+00 6.0976810620376187e-01 5.2043714927290408e-01  0.0000000000000000e+00 6.3860650706825783e-01 4.8894381504336287e-01  0.0000000000000000e+00 6.6045143230921821e-01 4.6338753751452311e-01  0.0000000000000000e+00 6.7741275613002527e-01 4.4231065292395300e-01  0.0000000000000000e+00 6.9070550727642310e-01 4.2483936382901905e-01  0.0000000000000000e+00 7.0122285381243576e-01 4.1024002717771085e-01  0.0000000000000000e+00 7.0954879366445822e-01 3.9805312128297765e-01  0.0000000000000000e+00 7.2103574112098523e-01 3.7990348911504379e-01  0.0000000000000000e+00 7.2545913191143108e-01 3.7242499179094185e-01  0.0000000000000000e+00 7.2830222245408560e-01 3.6729124676150399e-01  0.0000000000000000e+00 7.3049673641213064e-01 3.6319535296926958e-01  0.0000000000000000e+00 7.3204427370611047e-01 3.6021704069163357e-01  0.0000000000000000e+00 7.3295557077259899e-01 3.5841564073177190e-01  0.0000000000000000e+00 7.3331457475145079e-01 3.5769652088343157e-01  0.0000000000000000e+00 7.3315855131347962e-01 3.5800594036418920e-01  0.0000000000000000e+00 7.3246471406513991e-01 3.5937938728368884e-01  0.0000000000000000e+00 7.3132758230798200e-01 3.6158909479512091e-01  0.0000000000000000e+00 7.2938499856535022e-01 3.6526884601422449e-01  0.0000000000000000e+00 7.2677067696560471e-01 3.7002749945686797e-01  0.0000000000000000e+00 7.2333598322991144e-01 3.7602349179735123e-01  0.0000000000000000e+00 7.1899617124954451e-01 3.8325823655130015e-01  0.0000000000000000e+00 7.1343165171404166e-01 3.9208915832765284e-01  0.0000000000000000e+00 7.0639667123784755e-01 4.0270777628025117e-01  0.0000000000000000e+00 6.9765702921126127e-01 4.1523983668461956e-01  0.0000000000000000e+00 6.8683015562852845e-01 4.2999070059793548e-01  0.0000000000000000e+00 6.7336143765877032e-01 4.4741414552228415e-01  0.0000000000000000e+00 6.5650986539887501e-01 4.6807404404561859e-01  0.0000000000000000e+00 6.3513827400468426e-01 4.9280646191179828e-01  0.0000000000000000e+00 6.0781276183057942e-01 5.2244654556249681e-01  0.0000000000000000e+00 5.7175074833683381e-01 5.5858396025350077e-01  0.0000000000000000e+00 5.2216336079227543e-01 6.0327541150785602e-01  0.0000000000000000e+00 4.5014333840333742e-01 6.5829500435874311e-01  0.0000000000000000e+00 3.4109452139123281e-01 7.1850681556092655e-01  0.0000000000000000e+00 1.9139030564440265e-01 7.4024796185808828e-01  0.0000000000000000e+00 7.9275946372839093e-02 6.1335568049265565e-01  0.0000000000000000e+00 5.7855915245890593e-02 4.0637571195419786e-01  0.0000000000000000e+00 8.1098338899240924e-02 2.7249645955787777e-01  0.0000000000000000e+00 1.4432671574243211e-01 2.1220312440422584e-01  0.0000000000000000e+00 2.2653431842860611e-01 1.9184292600939867e-01  0.0000000000000000e+00 2.8495621804799298e-01 1.8694654201228106e-01  0.0000000000000000e+00 2.9301663359308644e-01 1.8596178771419708e-01  0.0000000000000000e+00 2.6675851379644716e-01 1.8596782246548721e-01  0.0000000000000000e+00 2.2259527870764942e-01 1.8761629896977489e-01  0.0000000000000000e+00 1.7881470913340466e-01 1.9257637147076939e-01  0.0000000000000000e+00 1.4237558749740198e-01 2.0176151272041193e-01  0.0000000000000000e+00 1.1409354949303351e-01 2.1518252105084673e-01  0.0000000000000000e+00 9.3102060416636240e-02 2.3272093274772393e-01  0.0000000000000000e+00 7.7995431512909164e-02 2.5386763514737948e-01  0.0000000000000000e+00 6.7341779409622882e-02 2.7793014319054671e-01  0.0000000000000000e+00 6.0041333629676417e-02 3.0439357309280374e-01  0.0000000000000000e+00 5.5221830250006251e-02 3.3236181360785921e-01  0.0000000000000000e+00 5.2267382491498579e-02 3.6116138982936596e-01  0.0000000000000000e+00 5.0720773691490265e-02 3.9037483324443817e-01  0.0000000000000000e+00 5.0297142620686103e-02 4.1973439624965170e-01  0.0000000000000000e+00 5.0829271803412082e-02 4.4848273716216414e-01  0.0000000000000000e+00 5.2214393338259758e-02 4.7681270917942248e-01  0.0000000000000000e+00 5.4382586736895104e-02 5.0422912961796829e-01  0.0000000000000000e+00 5.7383908163137876e-02 5.3065408358028943e-01  0.0000000000000000e+00 6.1172512026027755e-02 5.5573545603705277e-01  0.0000000000000000e+00 6.5759133352450885e-02 5.7920405639882433e-01  0.0000000000000000e+00 7.1143299163323293e-02 6.0100805906746202e-01  0.0000000000000000e+00 7.7314275449097858e-02 6.2109358005912096e-01  0.0000000000000000e+00 8.4224059470175749e-02 6.3935333630039914e-01  0.0000000000000000e+00 9.9990446014103354e-02 6.7048106577938604e-01  0.0000000000000000e+00 1.0866528596033215e-01 6.8339296531945415e-01  0.0000000000000000e+00 1.1778144387146318e-01 6.9473304267933800e-01  0.0000000000000000e+00 1.2722349939984609e-01 7.0452299358563408e-01  0.0000000000000000e+00 1.3689979548053061e-01 7.1290903702157116e-01  0.0000000000000000e+00 1.4673526268630593e-01 7.2000875680629173e-01  0.0000000000000000e+00 1.5665670199004997e-01 7.2594166734518295e-01  0.0000000000000000e+00 1.6659772861198857e-01 7.3081773766062530e-01  0.0000000000000000e+00 1.7650681354941691e-01 7.3475453397629442e-01  0.0000000000000000e+00 1.8633608685704800e-01 7.3784841045647453e-01  0.0000000000000000e+00 1.9604128102882953e-01 7.4020023006490376e-01  0.0000000000000000e+00 2.0557168131761211e-01 7.4188490006352581e-01  0.0000000000000000e+00 2.1498016992941976e-01 7.4299817944584368e-01  0.0000000000000000e+00 2.2420394883358655e-01 7.4360548407777172e-01  0.0000000000000000e+00 2.3316455469596420e-01 7.4376168880296256e-01  0.0000000000000000e+00 2.4201373027831732e-01 7.4352710511741582e-01  0.0000000000000000e+00 2.5062427337797299e-01 7.4295268380469015e-01  0.0000000000000000e+00 2.5890766274487248e-01 7.4208159495181270e-01  0.0000000000000000e+00 2.6700092265837555e-01 7.4096414046228332e-01  0.0000000000000000e+00 2.7487090366769451e-01 7.3961862802466349e-01  0.0000000000000000e+00 2.8251435191673563e-01 7.3808837120246662e-01  0.0000000000000000e+00 2.8992196097842432e-01 7.3639861517126970e-01  0.0000000000000000e+00 2.9712070766583371e-01 7.3456841694608954e-01  0.0000000000000000e+00 3.0411444476320448e-01 7.3261933566114112e-01  0.0000000000000000e+00 3.1083624169787188e-01 7.3059268695052504e-01  0.0000000000000000e+00 3.1736199907297002e-01 7.2848208425654726e-01  0.0000000000000000e+00 3.2371097579280872e-01 7.2630237050991642e-01  0.0000000000000000e+00 3.2977948515534766e-01 7.2409948914256184e-01  0.0000000000000000e+00 3.3569881350303632e-01 7.2184460430126995e-01  0.0000000000000000e+00 3.4141963237327916e-01 7.1956448162485231e-01  0.0000000000000000e+00 3.4692973856433923e-01 7.1727941959834474e-01  0.0000000000000000e+00 3.5225267909429797e-01 7.1498841843411420e-01  0.0000000000000000e+00 3.5738880938623502e-01 7.1270189187627286e-01  0.0000000000000000e+00 3.6236041760150567e-01 7.1041858630771693e-01  0.0000000000000000e+00 3.6719302439974960e-01 7.0813371744229969e-01  0.0000000000000000e+00 3.7178404759110512e-01 7.0590493346568450e-01  0.0000000000000000e+00 3.7619245077218649e-01 7.0371131249196950e-01  0.0000000000000000e+00 3.8053515349657391e-01 7.0149962431854818e-01  0.0000000000000000e+00 3.8466500761448713e-01 6.9935086770021715e-01  0.0000000000000000e+00 3.8860125699879433e-01 6.9726164327667250e-01  0.0000000000000000e+00 3.9241678678308389e-01 6.9519817674088957e-01  0.0000000000000000e+00 3.9607274200363424e-01 6.9318585939045596e-01  0.0000000000000000e+00 3.9961139259467982e-01 6.9120622755553474e-01  0.0000000000000000e+00 4.0295016370776332e-01 6.8930879348696794e-01  0.0000000000000000e+00 4.0618831296055530e-01 6.8744252966821717e-01  0.0000000000000000e+00 4.0926808291378558e-01 6.8564320261256340e-01  0.0000000000000000e+00 4.1223126511548025e-01 6.8388895427216312e-01  0.0000000000000000e+00 4.1509065474430490e-01 6.8217596785066348e-01  0.0000000000000000e+00 4.1776299865819860e-01 6.8055817107528593e-01  0.0000000000000000e+00 4.2029598115536826e-01 6.7900750007946720e-01  0.0000000000000000e+00 4.2275958104620281e-01 6.7748462446957336e-01  0.0000000000000000e+00 4.2506414921365338e-01 6.7604668717083449e-01  0.0000000000000000e+00 4.2722427444986305e-01 6.7468775578711848e-01  0.0000000000000000e+00 4.2928261045762950e-01 6.7338158904559720e-01  0.0000000000000000e+00 4.3123250718451561e-01 6.7213564492707967e-01  0.0000000000000000e+00 4.3303727995395619e-01 6.7097370570998760e-01  0.0000000000000000e+00 3.9723622612764992e-01 6.9254043467376014e-01  0.0000000000000000e+00 6.4855375328004200e-02 2.8571162151624319e-01  0.0000000000000000e+00 4.3201527787026706e-01 6.7162596326372492e-01  0.0000000000000000e+00 8.7557079255047299e-02 6.4696610084271566e-01  0.0000000000000000e+00 4.3322170079607192e-01 6.7085673352041408e-01  0.0000000000000000e+00 5.6871371592544163e-02 4.3397285972238536e-01  0.0000000000000000e+00 3.9377470043808471e-01 6.9443832697039010e-01  0.0000000000000000e+00 3.0746967747326936e-01 7.3161640892026225e-01  0.0000000000000000e+00 7.1829165211879775e-01 3.8448559217731176e-01  0.0000000000000000e+00 5.4794335058641779e-02 3.3786651544028556e-01  0.0000000000000000e+00 3.5915064120825274e-01 7.1190176181074338e-01  0.0000000000000000e+00 2.2459813308664456e-01 1.9856466593347483e-01  0.0000000000000000e+00 2.9373125533904193e-01 1.9576024103720827e-01  0.0000000000000000e+00 3.2629222639018612e-01 7.2538181046075423e-01  0.0000000000000000e+00 6.5997726355640551e-02 5.8015942636958728e-01  0.0000000000000000e+00 4.4104277793885305e-01 6.6572417425044450e-01  0.0000000000000000e+00 4.9069729319146094e-01 6.2877199032145237e-01  0.0000000000000000e+00 6.9167994715040015e-01 4.2349542635971660e-01  0.0000000000000000e+00 4.4574199299908013e-01 6.6257782361721407e-01  0.0000000000000000e+00 2.7852953602194547e-01 7.3891414496952113e-01  0.0000000000000000e+00 1.2450418708990849e-01 7.0185217472010286e-01  0.0000000000000000e+00 2.1888462754465426e-01 7.4333294572115960e-01  0.0000000000000000e+00 4.4607486584394762e-01 6.6235299099540090e-01  0.0000000000000000e+00 7.2724608624755194e-01 3.6921344069048140e-01  0.0000000000000000e+00 1.9997102537792974e-01 7.4094810029699454e-01  0.0000000000000000e+00 1.7068301625124960e-01 7.3254592530164941e-01  0.0000000000000000e+00 4.4384358497143583e-01 6.6385795936889824e-01  0.0000000000000000e+00 4.1577120744149731e-01 6.8176873016472184e-01  0.0000000000000000e+00 5.1384291786673683e-02 4.6180541213484144e-01  0.0000000000000000e+00 5.9194192280477242e-01 5.3881131205036703e-01  0.0000000000000000e+00 3.6413540750801199e-01 7.0956659258765986e-01  0.0000000000000000e+00 4.1863518648124781e-01 6.8001456232909385e-01  0.0000000000000000e+00 7.3278046682363396e-01 3.5878765150041247e-01  0.0000000000000000e+00 2.4790618707254108e-01 7.4314171349052272e-01  0.0000000000000000e+00 1.3142656757096960e-01 7.0835692438876874e-01  0.0000000000000000e+00 4.4030782859791601e-01 6.6621722391805394e-01  0.0000000000000000e+00 4.2285305494286113e-01 6.5983444085307374e-01  0.0000000000000000e+00 1.6664098082540529e-01 1.9540904548500471e-01  0.0000000000000000e+00 4.2551717400130212e-01 6.7576483120037467e-01  0.0000000000000000e+00 3.8181333575366316e-01 7.0084398595045594e-01  0.0000000000000000e+00 6.3610597462420246e-02 5.6892013562927291e-01  0.0000000000000000e+00 6.8284751002328092e-01 4.3529883853944906e-01  0.0000000000000000e+00 3.3936208096488069e-01 7.2036952777600993e-01  0.0000000000000000e+00 4.4346318040994775e-01 6.6411045531295820e-01  0.0000000000000000e+00 3.7998071856544285e-01 7.0176739149759226e-01  0.0000000000000000e+00 7.2921165735081406e-01 3.6562849129716080e-01  0.0000000000000000e+00 3.6549537639468160e-01 7.0850661791457226e-01  0.0000000000000000e+00 2.7964091255585427e-01 7.3866977060627248e-01  0.0000000000000000e+00 5.0889908556583575e-02 4.4764440977505898e-01  0.0000000000000000e+00 4.0710860910510926e-01 6.8690876679824919e-01  0.0000000000000000e+00 4.2559124392927888e-01 6.7570880856740168e-01  0.0000000000000000e+00 3.0705062459230836e-01 7.3175667828503588e-01  0.0000000000000000e+00 6.2094475576343633e-01 5.0846284037164335e-01  0.0000000000000000e+00 2.5464917437537549e-01 7.4257534053480934e-01  0.0000000000000000e+00 5.1413475300459505e-02 3.7485042818437642e-01  0.0000000000000000e+00 4.0884014155928511e-01 6.8588142336028368e-01  0.0000000000