<?xml version="1.0"?>
<VTKFile type="UnstructuredGrid"  version="0.1"  >
<UnstructuredGrid>
<Piece  NumberOfPoints="4940" NumberOfCells="9650">
<Points>
<DataArray  type="Float64"  NumberOfComponents="3"  format="ascii">500 250 0  0 250 0  250 500 0  250 0 0  256.8885856082646 499.9050767557906 0  263.7719401218049 499.6203791065173 0  270.6448364229772 499.1461232471188 0  277.5020553257866 498.4826693209355 0  284.3383895508592 497.6305211460281 0  291.1486476865662 496.5903258312597 0  297.9276581259182 495.3628732847843 0  304.6702729675493 493.9490956196674 0  311.3713719748657 492.3500664368026 0  318.0258664141369 490.5670000199653 0  324.6287029687753 488.6012504015818 0  331.1748675330201 486.4543103455647 0  337.6593890460416 484.1278102064655 0  344.0773432429536 481.6235166997244 0  350.4238564271474 478.9433315480048 0  356.694109139292 476.0892900492477 0  362.88333985546 473.0635595140469 0  368.9868485575419 469.8684376402048 0  375.0000003153078 466.5063507640667 0  380.9182288257928 462.9798520074548 0  386.7370398729688 459.2916193419558 0  392.4520147244077 455.444453565817 0  398.0588135356345 451.4412761437442 0  403.5531785622926 447.285127045646 0  408.9309374414144 442.9791624087773 0  414.1880064015299 438.5266521049243 0  419.3203932989752 433.9309773069245 0  424.324200661095 429.1956279150535 0  429.1956286596235 424.3241998957182 0  433.9309780058756 419.3203925397119 0  438.5266527445345 414.1880056671062 0  442.9791630130591 408.9309367076756 0  447.2851276060475 403.5531778422888 0  451.4412766621026 398.0588128303826 0  455.4444540361634 392.4520140460735 0  459.2916197786263 386.7370392045948 0  462.9798524073514 380.9182281752347 0  466.5063511234856 374.9999996927758 0  469.8684379657123 368.9868479560565 0  473.0635598144817 362.8833392617846 0  476.0892903190255 356.6941085676214 0  478.9433317963513 350.4238558609745 0  481.6235169154735 344.0773427117675 0  484.12781039012 337.6593885555221 0  486.4543105028062 331.1748670749914 0  488.601250531677 324.6287025528375 0  490.5670001317469 318.0258660188321 0  492.3500665291326 311.3713716102628 0  493.949095695951 304.6702726271575 0  495.3628733416623 297.9276578347343 0  496.5903258712341 291.1486474470129 0  497.6305211749058 284.3383893426084 0  498.4826693388848 277.502055163614 0  499.1461232580606 270.6448362909296 0  499.6203791109319 263.7719400417897 0  499.9050767571306 256.8885855596534 0  499.9050767559877 243.1114143988867 0  499.6203791069493 236.2280598860241 0  499.1461232485393 229.3551635941651 0  498.4826693235677 222.4979446979962 0  497.6305211491849 215.6616104719064 0  496.5903258357701 208.8513523404629 0  495.3628732906988 202.0723419043604 0  493.9490956264813 195.3297270628552 0  492.3500664487791 188.6286280724281 0  490.5670000344809 181.9741336371959 0  488.6012504175981 175.3712970824318 0  486.4543103623226 168.8251325157939 0  484.1278102222298 162.3406109960628 0  481.6235167152198 155.9226567951971 0  478.9433315621651 149.5761436051346 0  476.0892900516498 143.3058908657982 0  473.063559513628 137.1166601437124 0  469.8684376406648 131.0131514433083 0  466.5063507675389 124.9999996907064 0  462.9798520124137 119.0817711822745 0  459.2916193464549 113.2629601339176 0  455.4444535642773 107.5479852733717 0  451.4412761528674 101.9411864767781 0  447.2851270583545 96.44682145403524 0  442.9791624165781 91.06906256805769 0  438.5266521117469 85.81199360630404 0  433.9309773156125 80.67960671046254 0  429.1956279150353 75.67579933888632 0  424.3241998888952 70.80437133373906 0  419.3203925223282 66.06902197812161 0  414.1880056411937 61.47334723289828 0  408.9309366751728 57.0208369601728 0  403.5531778009394 52.71487236176898 0  398.058812796452 48.55872331295853 0  392.4520140187753 44.55554594490843 0  386.7370391799677 40.70838020528396 0  380.9182281475119 37.02014757560744 0  374.9999996718656 33.49364886444181 0  368.9868479340393 30.13156202237255 0  362.8833392380029 26.93644017348339 0  356.6941085456942 23.91070967062674 0  350.4238558420009 21.0566681953261 0  344.0773426899492 18.37648307566465 0  337.6593885328982 15.87218960140942 0  331.1748670549786 13.54568949032341 0  324.6287025315056 11.39874946165088 0  318.0258660010876 9.432999863235466 0  311.3713716017894 7.649933468721599 0  304.6702726190621 6.050904302234756 0  297.9276578269805 4.637126656823085 0  291.148647441857 3.409674127905504 0  284.3383893425031 2.369478825079682 0  277.502055159398 1.517330660648639 0  270.6448362875833 0.853876741662134 0  263.7719400401456 0.3796208889774277 0  256.8885855592052 0.09492324285704967 0  243.1114143979462 0.09492324403817065 0  236.2280598850882 0.3796208931023841 0  229.3551635938215 0.8538767514891958 0  222.4979446968584 1.517330676558146 0  215.6616104703111 2.369478851036291 0  208.8513523382973 3.409674164591252 0  202.0723419066374 4.637126708856528 0  195.3297270659513 6.050904372824903 0  188.628628074828 7.649933550613184 0  181.9741336377093 9.432999965373938 0  175.3712970793675 11.39874958336037 0  168.8251325057572 13.54568964112298 0  162.340610986655 15.87218978129263 0  155.9226567874317 18.37648328793418 0  149.576143602509 21.05666843898663 0  143.3058908718157 23.91070994551046 0  137.1166601505524 26.93644048291054 0  131.0131514451933 30.13156235831508 0  124.9999996848412 33.49364923584736 0  119.0817711715717 37.0201479941652 0  113.2629601211624 40.70838066187849 0  107.5479852622251 44.55554644345162 0  101.9411864693332 48.55872385260452 0  96.44682143286516 52.71487295812284 0  91.06906254351222 57.02083760363669 0  85.81199358272519 61.4733479087879 0  80.67960667988106 66.06902271253972 0  75.67579930062769 70.80437212218331 0  70.80437129287643 75.67580015310926 0  66.06902193673014 80.67960752263491 0  61.47334718684866 85.81199441168215 0  57.02083692524275 91.0690633672404 0  52.71487232786438 96.44682224262129 0  48.55872328070024 101.941187247437 0  44.55554591578033 107.5479860232332 0  40.7083801742321 113.2629608675606 0  37.02014754791168 119.0817718975441 0  33.49364883372994 125.000000381329 0  30.13156199866361 131.0131521097709 0  26.9364401549829 137.1166607985551 0  23.91070965524918 143.3058914868915 0  21.05666818346614 149.576144185037 0  18.37648306853811 155.9226573275967 0  15.8721895918909 162.3406114925245 0  13.54568948170046 168.8251329701392 0  11.39874945301878 175.3712974960928 0  9.432999857087736 181.9741340206533 0  7.649933466342702 188.6286284076045 0  6.050904301250966 195.3297273853278 0  4.637126656808988 202.0723421730917 0  3.409674127767772 208.8513525589684 0  2.369478824521138 215.6616106615248 0  1.517330660909465 222.4979448382452 0  0.8538767414496533 229.355163714981 0  0.3796208887135322 236.2280599646376 0  0.09492324266324204 243.1114144478261 0  0.0949232442452228 256.8885856095658 0  0.3796208935834784 263.7719401236316 0  0.8538767530323526 270.6448364248016 0  1.517330679476544 277.5020553295092 0  2.369478854618649 284.3383895555228 0  3.409674170191892 291.1486476952655 0  4.6371267162381 297.9276581311522 0  6.050904381420935 304.6702729724059 0  7.649933562385399 311.3713719716595 0  9.43299997979841 318.0258664133013 0  11.3987495994252 324.6287029719946 0  13.54568965885832 331.174867545904 0  15.87218979367188 337.6593890464085 0  18.37648329843151 344.0773432384132 0  21.05666844777872 350.423856417535 0  23.91070995156048 356.6941091410045 0  26.93644048988043 362.8833398632205 0  30.13156235982007 368.9868485575877 0  33.49364924138357 375.0000003247478 0  37.0201480006036 380.9182288389023 0  40.70838066758398 386.7370398875706 0  44.55554644477201 392.4520147396792 0  48.55872386086904 398.0588135419111 0  52.71487295981296 403.5531785693063 0  57.02083760525949 408.9309374584583 0  61.47334790862246 414.1880064170849 0  66.06902271205095 419.320393319588 0  70.80437211216579 424.3242006890749 0  75.67580013809859 429.195628692521 0  80.6796075127923 433.930978054209 0  85.81199439754931 438.5266528008431 0  91.06906334717917 442.9791630582355 0  96.44682221438322 447.2851276501571 0  101.9411872243843 451.441276702356 0  107.5479859945825 455.4444540643537 0  113.2629608446994 459.2916198108319 0  119.0817718768376 462.9798524393601 0  125.0000003647644 466.5063511567065 0  131.0131521012763 469.8684379967393 0  137.1166607840049 473.0635598376539 0  143.3058914748804 476.0892903390826 0  149.5761441732679 478.9433318113714 0  155.9226573130112 481.6235169255377 0  162.3406114779862 484.1278104026658 0  168.8251329570439 486.4543105138039 0  175.3712974805475 488.601250542119 0  181.9741340135204 490.5670001408953 0  188.6286284005059 492.3500665318597 0  195.3297273788229 493.9490956972913 0  202.0723421640089 495.3628733414168 0  208.8513525529672 496.5903258712308 0  215.6616106544547 497.6305211744985 0  222.4979448327038 498.4826693384772 0  229.3551637102845 499.1461232581612 0  236.2280599621369 499.6203791111485 0  243.1114144470173 499.9050767573145 0  155.2373389820306 474.8197567317462 0  25.36256300907667 153.9152755065208 0  432.3709625126712 412.6214396304305 0  6.013151705810699 246.637913163471 0  246.6379131630491 493.986848294322 0  338.6995838441862 22.68244767887072 0  477.3175523131281 338.6995838660569 0  493.9868482700757 246.6379131399102 0  246.6201155078769 6.218451882810491 0  417.6179310263282 72.7156044707053 0  102.2232990934413 445.0100869616822 0  63.66330858966404 92.20354579482142 0  391.3105220491464 50.73522820883105 0  72.79295043967942 418.0702734974704 0  448.290574428537 108.25674339002 0  402.4604651193511 440.7462829841712 0  97.55317348421397 59.11376320116034 0  136.7376477664901 33.58246472647134 0  363.3288394375288 465.6947312928271 0  44.0678766556007 381.0860953771871 0  469.6905266180034 142.3890690100806 0  22.68244791668644 338.6995843487432 0  338.699584349159 477.317552078365 0  173.389488083762 18.6681884918202 0  483.4809734778481 179.7121987795732 0  13.50237455842738 306.4709525540879 0  305.9825168523021 487.24416992
[...]
<PointData  Vectors="f_12"> 
<DataArray  type="Float64"  Name="f_12"  NumberOfComponents="3" format="ascii">0.0000000000000000e+00 2.5952939938894568e-02 1.8052051820552248e-01  0.0000000000000000e+00 8.3006887868207502e-01 2.9580710816859956e-01  0.0000000000000000e+00 2.1870691772717516e-02 4.9003627098025460e-01  0.0000000000000000e+00 1.4893780073222923e-01 3.0026222965564930e-01  0.0000000000000000e+00 2.2080269329425146e-02 4.9543385440230042e-01  0.0000000000000000e+00 2.2271316698281876e-02 5.0013448120640636e-01  0.0000000000000000e+00 2.2467149647075458e-02 5.0480825040603061e-01  0.0000000000000000e+00 2.2644148303099517e-02 5.0887688525703889e-01  0.0000000000000000e+00 2.2810829035331777e-02 5.1259967508836546e-01  0.0000000000000000e+00 2.2963084380415850e-02 5.1592939621503353e-01  0.0000000000000000e+00 2.3100993316983138e-02 5.1887588448500921e-01  0.0000000000000000e+00 2.3226222921513866e-02 5.2149839958333699e-01  0.0000000000000000e+00 2.3334247862153091e-02 5.2372875618499859e-01  0.0000000000000000e+00 2.3423038224169090e-02 5.2553140029427692e-01  0.0000000000000000e+00 2.3470563084556625e-02 5.2646102022188546e-01  0.0000000000000000e+00 2.3543122810803657e-02 5.2794511818914391e-01  0.0000000000000000e+00 2.3536334532126175e-02 5.2777718252214834e-01  0.0000000000000000e+00 2.3545531687751687e-02 5.2797824979185193e-01  0.0000000000000000e+00 2.3526272810362157e-02 5.2759667603307314e-01  0.0000000000000000e+00 2.3490712324942865e-02 5.2689230574010548e-01  0.0000000000000000e+00 2.3440958017317205e-02 5.2593759130446083e-01  0.0000000000000000e+00 2.3353555797999609e-02 5.2414664694819191e-01  0.0000000000000000e+00 2.3244972737674768e-02 5.2189644135696789e-01  0.0000000000000000e+00 2.3140597564230703e-02 5.1977385778056695e-01  0.0000000000000000e+00 2.3017105739626294e-02 5.1718768567250339e-01  0.0000000000000000e+00 2.2867388769588902e-02 5.1394196263602887e-01  0.0000000000000000e+00 2.2688440303455883e-02 5.0993317711466235e-01  0.0000000000000000e+00 2.2520100041874765e-02 5.0611825280972245e-01  0.0000000000000000e+00 2.2342500323395437e-02 5.0197751900298349e-01  0.0000000000000000e+00 2.2134238164980075e-02 4.9688663559862323e-01  0.0000000000000000e+00 2.1934565471105377e-02 4.9184962395857157e-01  0.0000000000000000e+00 2.1724664253727374e-02 4.8631612759028175e-01  0.0000000000000000e+00 2.1509807398981642e-02 4.8036276780881637e-01  0.0000000000000000e+00 2.1300329445990033e-02 4.7431624648846438e-01  0.0000000000000000e+00 2.1075049537370889e-02 4.6739425075635421e-01  0.0000000000000000e+00 2.0857905437233863e-02 4.6026449453233792e-01  0.0000000000000000e+00 2.0653454966970224e-02 4.5324426725102829e-01  0.0000000000000000e+00 2.0443411501778204e-02 4.4541423224610860e-01  0.0000000000000000e+00 2.0234116433888401e-02 4.3676176303489489e-01  0.0000000000000000e+00 2.0042425939196393e-02 4.2814086005371121e-01  0.0000000000000000e+00 1.9868953340698565e-02 4.1963360115763393e-01  0.0000000000000000e+00 1.9705004456306099e-02 4.1041513938226076e-01  0.0000000000000000e+00 1.9552345249484314e-02 4.0047131872887215e-01  0.0000000000000000e+00 1.9423083566434480e-02 3.9047079573728871e-01  0.0000000000000000e+00 1.9318560161084460e-02 3.7998882410832230e-01  0.0000000000000000e+00 1.9238347760032384e-02 3.6922088183267099e-01  0.0000000000000000e+00 1.9188305140326822e-02 3.5822727780011338e-01  0.0000000000000000e+00 1.9173100938102979e-02 3.4707806180393802e-01  0.0000000000000000e+00 1.9200516210357801e-02 3.3513835616544452e-01  0.0000000000000000e+00 1.9270405433502693e-02 3.2308140972887406e-01  0.0000000000000000e+00 1.9391428827871163e-02 3.1086565187198739e-01  0.0000000000000000e+00 1.9570151245799503e-02 2.9828052824220824e-01  0.0000000000000000e+00 1.9808697361074976e-02 2.8569622354202096e-01  0.0000000000000000e+00 2.0135726922753117e-02 2.7257756903167896e-01  0.0000000000000000e+00 2.0544359080298166e-02 2.5946196408315719e-01  0.0000000000000000e+00 2.1044078805330244e-02 2.4645732283570460e-01  0.0000000000000000e+00 2.1671497412396875e-02 2.3320796088710272e-01  0.0000000000000000e+00 2.2436015049891206e-02 2.2007430668444836e-01  0.0000000000000000e+00 2.3328887251874982e-02 2.0698752599646025e-01  0.0000000000000000e+00 2.4380807609016421e-02 1.9420107050708718e-01  0.0000000000000000e+00 2.7416849886709518e-02 1.6824791708040066e-01  0.0000000000000000e+00 2.9338766310845171e-02 1.5611980890037613e-01  0.0000000000000000e+00 3.1638480976145814e-02 1.4444608288568836e-01  0.0000000000000000e+00 3.4434453255655077e-02 1.3286857496843599e-01  0.0000000000000000e+00 3.7748194771020538e-02 1.2214894070482273e-01  0.0000000000000000e+00 4.1799378215194048e-02 1.1122839374087025e-01  0.0000000000000000e+00 4.8526088452978053e-02 1.0142199445674230e-01  0.0000000000000000e+00 4.8440690772156313e-02 9.7104928292248607e-02  0.0000000000000000e+00 3.3657585844967371e-02 7.8822779935814019e-02  0.0000000000000000e+00 5.1930726095289725e-01 1.8474071003436149e-01  0.0000000000000000e+00 3.9698618114655793e-01 6.8204143123977445e-01  0.0000000000000000e+00 1.2336986099643940e-01 4.7685145386479733e-01  0.0000000000000000e+00 1.4456077414017918e-01 2.5685831198213088e-01  0.0000000000000000e+00 8.5521155585449107e-02 4.8648895846724660e-01  0.0000000000000000e+00 2.6185238889781404e-01 9.3938749684118106e-01  0.0000000000000000e+00 7.4641977329281195e-01 4.3976388978842218e-01  0.0000000000000000e+00 8.1704752146908133e-01 3.2140942729358918e-01  0.0000000000000000e+00 7.6201781716602979e-01 3.7471088445765249e-01  0.0000000000000000e+00 5.0429692403795823e-01 2.6903140084429278e-01  0.0000000000000000e+00 4.3526574330144119e-02 2.4953937251430369e-01  0.0000000000000000e+00 1.9773722360206990e-02 4.1491196356050292e-01  0.0000000000000000e+00 3.6906715851868707e-02 2.4438409990937801e-01  0.0000000000000000e+00 1.8001411103155524e-01 7.5210241227614982e-01  0.0000000000000000e+00 8.2918558466415804e-01 2.9336269696561917e-01  0.0000000000000000e+00 7.0433695018259501e-01 5.0388998985487765e-01  0.0000000000000000e+00 1.4043673280185612e-01 7.3920639088646145e-01  0.0000000000000000e+00 6.8441599000811787e-02 2.4197797074003097e-01  0.0000000000000000e+00 3.8063667771584195e-02 5.4814525063019726e-01  0.0000000000000000e+00 3.6159578089247295e-02 6.6338981393791574e-01  0.0000000000000000e+00 4.4422124090201902e-02 2.1513532301662303e-01  0.0000000000000000e+00 1.0682877904865620e-01 9.3676932543796540e-02  0.0000000000000000e+00 2.7715049776769907e-01 7.1124211958284028e-02  0.0000000000000000e+00 2.3525170291563399e-01 6.2517500096823275e-02  0.0000000000000000e+00 8.1756052273919147e-02 5.5898516054776401e-02  0.0000000000000000e+00 1.6250964146102728e-01 5.6950979162088508e-02  0.0000000000000000e+00 7.3033987520929655e-01 1.5174548809957653e-01  0.0000000000000000e+00 8.1481177376244363e-01 2.9753634408480345e-01  0.0000000000000000e+00 7.6329067462761879e-01 3.9968182038011940e-01  0.0000000000000000e+00 7.5506267681629402e-01 4.2657801024982395e-01  0.0000000000000000e+00 8.2604076111431446e-01 3.1737885686095246e-01  0.0000000000000000e+00 8.6032079515929261e-01 1.6333554697263866e-01  0.0000000000000000e+00 5.3859337282164133e-01 9.5944140068681488e-02  0.0000000000000000e+00 1.2141476707404512e-01 8.8006474405256371e-02  0.0000000000000000e+00 6.4760091205794235e-02 2.7106135985086388e-01  0.0000000000000000e+00 1.8649178947195946e-01 9.3240510613509509e-01  0.0000000000000000e+00 5.9068427238686960e-01 6.5164996408286646e-01  0.0000000000000000e+00 2.1164595206075718e-01 9.3761342964918892e-01  0.0000000000000000e+00 7.5361210165777862e-02 8.4600214325407719e-01  0.0000000000000000e+00 1.5279615458306064e-01 9.0710386176774183e-01  0.0000000000000000e+00 1.5047941766303963e-01 9.2586052352359294e-01  0.0000000000000000e+00 5.4751110460002701e-02 3.3584775296390301e-01  0.0000000000000000e+00 4.3384184105259438e-01 3.5665581467697138e-01  0.0000000000000000e+00 7.3947916718388773e-01 4.1307093414469986e-01  0.0000000000000000e+00 9.0595057556197733e-01 1.5669021393932056e-01  0.0000000000000000e+00 8.9053625783409529e-01 1.9336260282120718e-01  0.0000000000000000e+00 2.6196761054663231e-01 8.8616313289150694e-01  0.0000000000000000e+00 5.4620035900891128e-01 2.6857371845052369e-01  0.0000000000000000e+00 7.6474850729717025e-01 4.0151065603506458e-01  0.0000000000000000e+00 2.2477509027091636e-01 8.7988836703468198e-01  0.0000000000000000e+00 5.6062394184909811e-02 4.6764886687126406e-01  0.0000000000000000e+00 2.9060962229534093e-01 6.2003621774761020e-01  0.0000000000000000e+00 6.9583539199878897e-01 2.7505471696669492e-01  0.0000000000000000e+00 3.1918102728193665e-01 1.2734210965150208e-01  0.0000000000000000e+00 1.8394494226070028e-02 1.3353978827667085e-01  0.0000000000000000e+00 3.3530920010878901e-02 1.4220906054413487e-01  0.0000000000000000e+00 5.5220763605174444e-02 1.0155486012942169e-01  0.0000000000000000e+00 6.0165461852020388e-02 1.1742823353512698e-01  0.0000000000000000e+00 5.1210239933665531e-02 4.2842821125110936e-01  0.0000000000000000e+00 4.0902868496122741e-01 8.5215687601656742e-01  0.0000000000000000e+00 9.2633457096636618e-01 1.1714156612210366e-01  0.0000000000000000e+00 9.1708655382512427e-01 1.0643322792958794e-01  0.0000000000000000e+00 8.9694722256184201e-01 1.1077848108458485e-01  0.0000000000000000e+00 7.3095706327294918e-01 2.2050324369823221e-01  0.0000000000000000e+00 2.0500142555913725e-01 2.3287006333076732e-01  0.0000000000000000e+00 1.4056659073019364e-02 3.3172964101848718e-01  0.0000000000000000e+00 3.4712566868528812e-02 2.5205942657188957e-01  0.0000000000000000e+00 1.0139818924361949e-01 9.9213487970437900e-02  0.0000000000000000e+00 1.7722296051981740e-01 2.1198183858380734e-01  0.0000000000000000e+00 1.9977642994209652e-01 7.1605008884049426e-01  0.0000000000000000e+00 7.6145957470547165e-01 3.2543904557944803e-01  0.0000000000000000e+00 7.8669373087654926e-01 2.6819236335990609e-01  0.0000000000000000e+00 1.5092490211471532e-01 7.9201641103536979e-01  0.0000000000000000e+00 6.9207159205486202e-02 7.7542340638761165e-01  0.0000000000000000e+00 1.3659644665579637e-01 9.6853511364199096e-01  0.0000000000000000e+00 3.8563578265062425e-02 4.9521455486064031e-01  0.0000000000000000e+00 4.5382082840650192e-02 1.5514739967859212e-01  0.0000000000000000e+00 7.5245797017132229e-02 8.3254292138849356e-02  0.0000000000000000e+00 1.6412916902682848e-01 6.5017505123438013e-02  0.0000000000000000e+00 2.5254761374887291e-01 5.9480969371764940e-02  0.0000000000000000e+00 1.7575007554597297e-01 6.8063259871855838e-02  0.0000000000000000e+00 4.2589614770474286e-02 1.3152089531956362e-01  0.0000000000000000e+00 1.4010400712192441e-02 3.0167582362441464e-01  0.0000000000000000e+00 1.9237041261087075e-02 4.2396029319599460e-01  0.0000000000000000e+00 1.8189043518223560e-02 3.5957789485282454e-01  0.0000000000000000e+00 1.9569431239870375e-02 3.4060487013359309e-01  0.0000000000000000e+00 2.4941657970989527e-02 5.1315809991433536e-01  0.0000000000000000e+00 5.3090745181649114e-02 8.0143521584278199e-01  0.0000000000000000e+00 1.4025834650587996e-01 9.4806820463223118e-01  0.0000000000000000e+00 4.1832738503261591e-01 8.5585935012292114e-01  0.0000000000000000e+00 7.9698875647893952e-01 3.8176161874750886e-01  0.0000000000000000e+00 2.6743179990997690e-01 8.8640324549436278e-01  0.0000000000000000e+00 8.8182269401191324e-02 3.6933294237399550e-01  0.0000000000000000e+00 3.1904676846742996e-01 6.5342824965249935e-01  0.0000000000000000e+00 7.9928811810386935e-01 3.2279452408314513e-01  0.0000000000000000e+00 8.4101367544761041e-01 2.6700027604046883e-01  0.0000000000000000e+00 2.0414229741321396e-01 8.7374462732850877e-01  0.0000000000000000e+00 2.3482734334788247e-02 4.0595271004061012e-01  0.0000000000000000e+00 3.4781586445025311e-02 6.2585770379713757e-01  0.0000000000000000e+00 4.2255449864921066e-02 6.8931119924395312e-01  0.0000000000000000e+00 7.3279829918466488e-02 2.3877755392104483e-01  0.0000000000000000e+00 5.1538475593318289e-01 2.0959336868010484e-01  0.0000000000000000e+00 8.1281687461142593e-01 2.7587477212045292e-01  0.0000000000000000e+00 7.3290189894484292e-01 4.5195232359457882e-01  0.0000000000000000e+00 4.8693057485809849e-01 6.8959248102281223e-01  0.0000000000000000e+00 3.0014754404438715e-01 4.2431800194905567e-01  0.0000000000000000e+00 1.3145627323972928e-01 5.3849061061308645e-01  0.0000000000000000e+00 4.5203769166409397e-01 6.5632582911388004e-01  0.0000000000000000e+00 5.3249061095113348e-01 1.3358480212657789e-01  0.0000000000000000e+00 4.8386169887228561e-02 5.2236464224650767e-02  0.0000000000000000e+00 8.8511416404496071e-02 6.7706749063023458e-02  0.0000000000000000e+00 8.3685570263441464e-02 7.0111638085156136e-02  0.0000000000000000e+00 7.1543191448802695e-02 7.5017594921719874e-02  0.0000000000000000e+00 6.4444665428982528e-02 8.0850533434044428e-02  0.0000000000000000e+00 5.8236022102970769e-02 8.6591260479636764e-02  0.0000000000000000e+00 5.2841532172913278e-02 9.2909940063036364e-02  0.0000000000000000e+00 4.8204666368445455e-02 9.9606886119659038e-02  0.0000000000000000e+00 4.4268886987984826e-02 1.0661050365922195e-01  0.0000000000000000e+00 4.0792534324099794e-02 1.1413046133775494e-01  0.0000000000000000e+00 3.7806067650474506e-02 1.2195939575758714e-01  0.0000000000000000e+00 3.5267354161353619e-02 1.2994837532208936e-01  0.0000000000000000e+00 3.3045322258378078e-02 1.3838426732654791e-01  0.0000000000000000e+00 3.1083963453070032e-02 1.4709924393689702e-01  0.0000000000000000e+00 2.9371168962781604e-02 1.5612449074013607e-01  0.0000000000000000e+00 2.7884601559842175e-02 1.6536449130854644e-01  0.0000000000000000e+00 2.6579942055596599e-02 1.7484209462108921e-01  0.0000000000000000e+00 2.5434668927345080e-02 1.8460100405750188e-01  0.0000000000000000e+00 2.4449147481582036e-02 1.9441789226321207e-01  0.0000000000000000e+00 2.3578425704317372e-02 2.0449588602279375e-01  0.0000000000000000e+00 2.2812413224217142e-02 2.1478264476714834e-01  0.0000000000000000e+00 2.2162586722600682e-02 2.2497445757535198e-01  0.0000000000000000e+00 2.1594651642739011e-02 2.3538862833692578e-01  0.0000000000000000e+00 2.1100270570500700e-02 2.4588958642187289e-01  0.0000000000000000e+00 2.0682942424200209e-02 2.5639797927737995e-01  0.0000000000000000e+00 2.0328238005777498e-02 2.6695043679747832e-01  0.0000000000000000e+00 2.0031551965162240e-02 2.7752335095685521e-01  0.0000000000000000e+00 1.9786684600614852e-02 2.8815962962093972e-01  0.0000000000000000e+00 1.9585141343516750e-02 2.9891744221502770e-01  0.0000000000000000e+00 1.9433872279536215e-02 3.0936822774308831e-01  0.0000000000000000e+00 1.9323976302758533e-02 3.1970007032608538e-01  0.0000000000000000e+00 1.9245441068316566e-02 3.3032328487976165e-01  0.0000000000000000e+00 1.9205210298490143e-02 3.4063432581488506e-01  0.0000000000000000e+00 1.9198546995434152e-02 3.5066304175748941e-01  0.0000000000000000e+00 1.9219394693793020e-02 3.6069194780690200e-01  0.0000000000000000e+00 1.9266531839898966e-02 3.7054350814363457e-01  0.0000000000000000e+00 1.9341063787383466e-02 3.8039135894611775e-01  0.0000000000000000e+00 1.9434359969166048e-02 3.8980367754557066e-01  0.0000000000000000e+00 1.9552603567919276e-02 3.9920818719373408e-01  0.0000000000000000e+00 1.9686819920124971e-02 4.0826961345280305e-01  0.0000000000000000e+00 1.9838360541519252e-02 4.1722181396771485e-01  0.0000000000000000e+00 2.0009578853515748e-02 4.2609877285798059e-01  0.0000000000000000e+00 2.0191857691776938e-02 4.3441963668890354e-01  0.0000000000000000e+00 2.0380201013405742e-02 4.4236916672013588e-01  0.0000000000000000e+00 2.0584230362735486e-02 4.5030519486359377e-01  0.0000000000000000e+00 2.0792102899146257e-02 4.5775860696086723e-01  0.0000000000000000e+00 2.1002645919888666e-02 4.6476269251474228e-01  0.0000000000000000e+00 2.1217788941446370e-02 4.7155188803055437e-01  0.0000000000000000e+00 2.1436676150604156e-02 4.7805914391495202e-01  0.0000000000000000e+00 2.1649830988791363e-02 4.8407307547884598e-01  0.0000000000000000e+00 1.9286478924830892e-02 3.7245681840103806e-01  0.0000000000000000e+00 5.6990551952217951e-02 7.1025507639782626e-01  0.0000000000000000e+00 2.1048927405172332e-02 4.6628728202173414e-01  0.0000000000000000e+00 8.2546982613032172e-01 2.8207531455761931e-01  0.0000000000000000e+00 2.1618595141519256e-02 4.8303863382739559e-01  0.0000000000000000e+00 7.7546477873126490e-02 1.4909225276188998e-01  0.0000000000000000e+00 1.9195918127160563e-02 3.4767551931138801e-01  0.0000000000000000e+00 2.7045022909290617e-02 1.7128335230063094e-01  0.0000000000000000e+00 3.5663942065587834e-01 2.1460932634911922e-01  0.0000000000000000e+00 4.8597555344661744e-02 3.5632629949905448e-01  0.0000000000000000e+00 1.9971092891332271e-02 2.8034111558694025e-01  0.0000000000000000e+00 4.0072496012971726e-01 1.2806039397559918e-01  0.0000000000000000e+00 2.1913163605095276e-01 5.8249265249236529e-02  0.0000000000000000e+00 2.2605597339119519e-02 2.1809461088028301e-01  0.0000000000000000e+00 7.4881686872303996e-02 4.2562779328719486e-01  0.0000000000000000e+00 2.2267629206298926e-02 4.9996239194617720e-01  0.0000000000000000e+00 8.7521895791015680e-01 1.5560269397946808e-01  0.0000000000000000e+00 4.9588070956640778e-01 2.5676271543800261e-01  0.0000000000000000e+00 2.3168297584593673e-02 5.2022050665594954e-01  0.0000000000000000e+00 3.0420720212220143e-02 1.5056704996408379e-01  0.0000000000000000e+00 8.2131780959692047e-01 3.1472974816268207e-01  0.0000000000000000e+00 5.1270071052687646e-02 9.5094881078079618e-02  0.0000000000000000e+00 2.3341356596929885e-02 5.2374301047002403e-01  0.0000000000000000e+00 7.6095874640956476e-02 2.0236796899497050e-01  0.0000000000000000e+00 5.1922063101525051e-01 5.5514595945303458e-01  0.0000000000000000e+00 8.8116475751752577e-02 6.7951169196377545e-02  0.0000000000000000e+00 2.3058415636406808e-02 5.1781691614155057e-01  0.0000000000000000e+00 2.0027736256205228e-02 4.2658273236832950e-01  0.0000000000000000e+00 8.9531862269096274e-01 1.5070298204157645e-01  0.0000000000000000e+00 2.2088128962565162e-01 9.3799517764899432e-01  0.0000000000000000e+00 2.0108460354083549e-02 2.7456435128371603e-01  0.0000000000000000e+00 1.9912861077117972e-02 4.2120266705619241e-01  0.0000000000000000e+00 6.1137268134099032e-01 2.1225856095850873e-01  0.0000000000000000e+00 4.6541297654751672e-02 1.0359152054115187e-01  0.0000000000000000e+00 1.9691323479004799e-01 7.1021058195745390e-01  0.0000000000000000e+00 2.2554029619382902e-02 5.0664480928479350e-01  0.0000000000000000e+00 4.4357105074452485e-01 7.9996055434950819e-01  0.0000000000000000e+00 2.2972815480934640e-02 3.1726406316999994e-01  0.0000000000000000e+00 2.0796928763363799e-02 4.5765717210829437e-01  0.0000000000000000e+00 1.9243591175534862e-02 3.3214342308651656e-01  0.0000000000000000e+00 4.4758536201811742e-02 7.6686229637726155e-01  0.0000000000000000e+00 8.1374133459038223e-01 3.1034983979310687e-01  0.0000000000000000e+00 2.2236379670160261e-02 2.2399092082365296e-01  0.0000000000000000e+00 2.2670244142166382e-02 5.0932342518013896e-01  0.0000000000000000e+00 1.9410542852230966e-02 3.1144640733639378e-01  0.0000000000000000e+00 1.1325006971623015e-01 7.7810852320605961e-01  0.0000000000000000e+00 3.8278829227643080e-01 8.4813037409719449e-01  0.0000000000000000e+00 3.3928109807736945e-02 1.3514704994560101e-01  0.0000000000000000e+00 1.0025236713885101e-01 3.7770298610847575e-01  0.0000000000000000e+00 1.9576425674324969e-02 4.0039302011915529e-01  0.0000000000000000e+00 2.0407543056554397e-02 4.4348122177240096e-01  0.0000000000000000e+00 2.5127701373108519e-02 1.8771773389631033e-01  0.0000000000000000e+00 1.3395234491025032e-01 1.1241382829757816e-01  0.0000000000000000e+00 3.6800506217943299e-02 1.2508306767671790e-01  0.0000000000000000e+00 9.2803243069942240e-02 6.3765036763631266e-01  0.0000000000000000e+00 1.9440041184219305e-02 3.9060444019686208e-01  0.0000000000