<?xml version="1.0"?>
<VTKFile type="UnstructuredGrid"  version="0.1"  >
<UnstructuredGrid>
<Piece  NumberOfPoints="4940" NumberOfCells="9650">
<Points>
<DataArray  type="Float64"  NumberOfComponents="3"  format="ascii">500 250 0  0 250 0  250 500 0  250 0 0  256.8885856082646 499.9050767557906 0  263.7719401218049 499.6203791065173 0  270.6448364229772 499.1461232471188 0  277.5020553257866 498.4826693209355 0  284.3383895508592 497.6305211460281 0  291.1486476865662 496.5903258312597 0  297.9276581259182 495.3628732847843 0  304.6702729675493 493.9490956196674 0  311.3713719748657 492.3500664368026 0  318.0258664141369 490.5670000199653 0  324.6287029687753 488.6012504015818 0  331.1748675330201 486.4543103455647 0  337.6593890460416 484.1278102064655 0  344.0773432429536 481.6235166997244 0  350.4238564271474 478.9433315480048 0  356.694109139292 476.0892900492477 0  362.88333985546 473.0635595140469 0  368.9868485575419 469.8684376402048 0  375.0000003153078 466.5063507640667 0  380.9182288257928 462.9798520074548 0  386.7370398729688 459.2916193419558 0  392.4520147244077 455.444453565817 0  398.0588135356345 451.4412761437442 0  403.5531785622926 447.285127045646 0  408.9309374414144 442.9791624087773 0  414.1880064015299 438.5266521049243 0  419.3203932989752 433.9309773069245 0  424.324200661095 429.1956279150535 0  429.1956286596235 424.3241998957182 0  433.9309780058756 419.3203925397119 0  438.5266527445345 414.1880056671062 0  442.9791630130591 408.9309367076756 0  447.2851276060475 403.5531778422888 0  451.4412766621026 398.0588128303826 0  455.4444540361634 392.4520140460735 0  459.2916197786263 386.7370392045948 0  462.9798524073514 380.9182281752347 0  466.5063511234856 374.9999996927758 0  469.8684379657123 368.9868479560565 0  473.0635598144817 362.8833392617846 0  476.0892903190255 356.6941085676214 0  478.9433317963513 350.4238558609745 0  481.6235169154735 344.0773427117675 0  484.12781039012 337.6593885555221 0  486.4543105028062 331.1748670749914 0  488.601250531677 324.6287025528375 0  490.5670001317469 318.0258660188321 0  492.3500665291326 311.3713716102628 0  493.949095695951 304.6702726271575 0  495.3628733416623 297.9276578347343 0  496.5903258712341 291.1486474470129 0  497.6305211749058 284.3383893426084 0  498.4826693388848 277.502055163614 0  499.1461232580606 270.6448362909296 0  499.6203791109319 263.7719400417897 0  499.9050767571306 256.8885855596534 0  499.9050767559877 243.1114143988867 0  499.6203791069493 236.2280598860241 0  499.1461232485393 229.3551635941651 0  498.4826693235677 222.4979446979962 0  497.6305211491849 215.6616104719064 0  496.5903258357701 208.8513523404629 0  495.3628732906988 202.0723419043604 0  493.9490956264813 195.3297270628552 0  492.3500664487791 188.6286280724281 0  490.5670000344809 181.9741336371959 0  488.6012504175981 175.3712970824318 0  486.4543103623226 168.8251325157939 0  484.1278102222298 162.3406109960628 0  481.6235167152198 155.9226567951971 0  478.9433315621651 149.5761436051346 0  476.0892900516498 143.3058908657982 0  473.063559513628 137.1166601437124 0  469.8684376406648 131.0131514433083 0  466.5063507675389 124.9999996907064 0  462.9798520124137 119.0817711822745 0  459.2916193464549 113.2629601339176 0  455.4444535642773 107.5479852733717 0  451.4412761528674 101.9411864767781 0  447.2851270583545 96.44682145403524 0  442.9791624165781 91.06906256805769 0  438.5266521117469 85.81199360630404 0  433.9309773156125 80.67960671046254 0  429.1956279150353 75.67579933888632 0  424.3241998888952 70.80437133373906 0  419.3203925223282 66.06902197812161 0  414.1880056411937 61.47334723289828 0  408.9309366751728 57.0208369601728 0  403.5531778009394 52.71487236176898 0  398.058812796452 48.55872331295853 0  392.4520140187753 44.55554594490843 0  386.7370391799677 40.70838020528396 0  380.9182281475119 37.02014757560744 0  374.9999996718656 33.49364886444181 0  368.9868479340393 30.13156202237255 0  362.8833392380029 26.93644017348339 0  356.6941085456942 23.91070967062674 0  350.4238558420009 21.0566681953261 0  344.0773426899492 18.37648307566465 0  337.6593885328982 15.87218960140942 0  331.1748670549786 13.54568949032341 0  324.6287025315056 11.39874946165088 0  318.0258660010876 9.432999863235466 0  311.3713716017894 7.649933468721599 0  304.6702726190621 6.050904302234756 0  297.9276578269805 4.637126656823085 0  291.148647441857 3.409674127905504 0  284.3383893425031 2.369478825079682 0  277.502055159398 1.517330660648639 0  270.6448362875833 0.853876741662134 0  263.7719400401456 0.3796208889774277 0  256.8885855592052 0.09492324285704967 0  243.1114143979462 0.09492324403817065 0  236.2280598850882 0.3796208931023841 0  229.3551635938215 0.8538767514891958 0  222.4979446968584 1.517330676558146 0  215.6616104703111 2.369478851036291 0  208.8513523382973 3.409674164591252 0  202.0723419066374 4.637126708856528 0  195.3297270659513 6.050904372824903 0  188.628628074828 7.649933550613184 0  181.9741336377093 9.432999965373938 0  175.3712970793675 11.39874958336037 0  168.8251325057572 13.54568964112298 0  162.340610986655 15.87218978129263 0  155.9226567874317 18.37648328793418 0  149.576143602509 21.05666843898663 0  143.3058908718157 23.91070994551046 0  137.1166601505524 26.93644048291054 0  131.0131514451933 30.13156235831508 0  124.9999996848412 33.49364923584736 0  119.0817711715717 37.0201479941652 0  113.2629601211624 40.70838066187849 0  107.5479852622251 44.55554644345162 0  101.9411864693332 48.55872385260452 0  96.44682143286516 52.71487295812284 0  91.06906254351222 57.02083760363669 0  85.81199358272519 61.4733479087879 0  80.67960667988106 66.06902271253972 0  75.67579930062769 70.80437212218331 0  70.80437129287643 75.67580015310926 0  66.06902193673014 80.67960752263491 0  61.47334718684866 85.81199441168215 0  57.02083692524275 91.0690633672404 0  52.71487232786438 96.44682224262129 0  48.55872328070024 101.941187247437 0  44.55554591578033 107.5479860232332 0  40.7083801742321 113.2629608675606 0  37.02014754791168 119.0817718975441 0  33.49364883372994 125.000000381329 0  30.13156199866361 131.0131521097709 0  26.9364401549829 137.1166607985551 0  23.91070965524918 143.3058914868915 0  21.05666818346614 149.576144185037 0  18.37648306853811 155.9226573275967 0  15.8721895918909 162.3406114925245 0  13.54568948170046 168.8251329701392 0  11.39874945301878 175.3712974960928 0  9.432999857087736 181.9741340206533 0  7.649933466342702 188.6286284076045 0  6.050904301250966 195.3297273853278 0  4.637126656808988 202.0723421730917 0  3.409674127767772 208.8513525589684 0  2.369478824521138 215.6616106615248 0  1.517330660909465 222.4979448382452 0  0.8538767414496533 229.355163714981 0  0.3796208887135322 236.2280599646376 0  0.09492324266324204 243.1114144478261 0  0.0949232442452228 256.8885856095658 0  0.3796208935834784 263.7719401236316 0  0.8538767530323526 270.6448364248016 0  1.517330679476544 277.5020553295092 0  2.369478854618649 284.3383895555228 0  3.409674170191892 291.1486476952655 0  4.6371267162381 297.9276581311522 0  6.050904381420935 304.6702729724059 0  7.649933562385399 311.3713719716595 0  9.43299997979841 318.0258664133013 0  11.3987495994252 324.6287029719946 0  13.54568965885832 331.174867545904 0  15.87218979367188 337.6593890464085 0  18.37648329843151 344.0773432384132 0  21.05666844777872 350.423856417535 0  23.91070995156048 356.6941091410045 0  26.93644048988043 362.8833398632205 0  30.13156235982007 368.9868485575877 0  33.49364924138357 375.0000003247478 0  37.0201480006036 380.9182288389023 0  40.70838066758398 386.7370398875706 0  44.55554644477201 392.4520147396792 0  48.55872386086904 398.0588135419111 0  52.71487295981296 403.5531785693063 0  57.02083760525949 408.9309374584583 0  61.47334790862246 414.1880064170849 0  66.06902271205095 419.320393319588 0  70.80437211216579 424.3242006890749 0  75.67580013809859 429.195628692521 0  80.6796075127923 433.930978054209 0  85.81199439754931 438.5266528008431 0  91.06906334717917 442.9791630582355 0  96.44682221438322 447.2851276501571 0  101.9411872243843 451.441276702356 0  107.5479859945825 455.4444540643537 0  113.2629608446994 459.2916198108319 0  119.0817718768376 462.9798524393601 0  125.0000003647644 466.5063511567065 0  131.0131521012763 469.8684379967393 0  137.1166607840049 473.0635598376539 0  143.3058914748804 476.0892903390826 0  149.5761441732679 478.9433318113714 0  155.9226573130112 481.6235169255377 0  162.3406114779862 484.1278104026658 0  168.8251329570439 486.4543105138039 0  175.3712974805475 488.601250542119 0  181.9741340135204 490.5670001408953 0  188.6286284005059 492.3500665318597 0  195.3297273788229 493.9490956972913 0  202.0723421640089 495.3628733414168 0  208.8513525529672 496.5903258712308 0  215.6616106544547 497.6305211744985 0  222.4979448327038 498.4826693384772 0  229.3551637102845 499.1461232581612 0  236.2280599621369 499.6203791111485 0  243.1114144470173 499.9050767573145 0  155.2373389820306 474.8197567317462 0  25.36256300907667 153.9152755065208 0  432.3709625126712 412.6214396304305 0  6.013151705810699 246.637913163471 0  246.6379131630491 493.986848294322 0  338.6995838441862 22.68244767887072 0  477.3175523131281 338.6995838660569 0  493.9868482700757 246.6379131399102 0  246.6201155078769 6.218451882810491 0  417.6179310263282 72.7156044707053 0  102.2232990934413 445.0100869616822 0  63.66330858966404 92.20354579482142 0  391.3105220491464 50.73522820883105 0  72.79295043967942 418.0702734974704 0  448.290574428537 108.25674339002 0  402.4604651193511 440.7462829841712 0  97.55317348421397 59.11376320116034 0  136.7376477664901 33.58246472647134 0  363.3288394375288 465.6947312928271 0  44.0678766556007 381.0860953771871 0  469.6905266180034 142.3890690100806 0  22.68244791668644 338.6995843487432 0  338.699584349159 477.317552078365 0  173.389488083762 18.6681884918202 0  483.4809734778481 179.7121987795732 0  13.50237455842738 306.4709525540879 0  305.9825168523021 487.24416992
[...]
<PointData  Vectors="f_12"> 
<DataArray  type="Float64"  Name="f_12"  NumberOfComponents="3" format="ascii">0.0000000000000000e+00 7.0254361774038571e-02 2.6833964791016607e-01  0.0000000000000000e+00 1.9170719069082204e-01 1.8796057520901102e-01  0.0000000000000000e+00 5.4023278083754046e-02 3.3921588569882422e-01  0.0000000000000000e+00 1.3584164466036361e-01 7.1176662842023597e-01  0.0000000000000000e+00 5.3890692334974608e-02 3.4038877657404326e-01  0.0000000000000000e+00 5.3775050230679404e-02 3.4143460294896644e-01  0.0000000000000000e+00 5.3664048665757656e-02 3.4245910675717073e-01  0.0000000000000000e+00 5.3566579293742110e-02 3.4337469310470548e-01  0.0000000000000000e+00 5.3478156374125799e-02 3.4422036931849737e-01  0.0000000000000000e+00 5.3399052705983635e-02 3.4498841435671906e-01  0.0000000000000000e+00 5.3328784881616367e-02 3.4568055096636929e-01  0.0000000000000000e+00 5.3266152797218080e-02 3.4630608126174828e-01  0.0000000000000000e+00 5.3211810621668777e-02 3.4685523319384642e-01  0.0000000000000000e+00 5.3166184537602704e-02 3.4732146305527695e-01  0.0000000000000000e+00 5.3135534256622895e-02 3.4763716092077079e-01  0.0000000000000000e+00 5.3098860849134039e-02 3.4801822478507688e-01  0.0000000000000000e+00 5.3088104265580485e-02 3.4813065656600534e-01  0.0000000000000000e+00 5.3073838643902763e-02 3.4828074089914168e-01  0.0000000000000000e+00 5.3069949203113344e-02 3.4832299050364246e-01  0.0000000000000000e+00 5.3072805130996867e-02 3.4829514848920456e-01  0.0000000000000000e+00 5.3081272847475325e-02 3.4820853152257331e-01  0.0000000000000000e+00 5.3103962147090317e-02 3.4797517891618740e-01  0.0000000000000000e+00 5.3135545705808120e-02 3.4765073599442681e-01  0.0000000000000000e+00 5.3167834161458712e-02 3.4732102552906247e-01  0.0000000000000000e+00 5.3209539270595983e-02 3.4689798538641881e-01  0.0000000000000000e+00 5.3264154448856682e-02 3.4634968380446329e-01  0.0000000000000000e+00 5.3333402891013397e-02 3.4566160531887619e-01  0.0000000000000000e+00 5.3403273210116960e-02 3.4497662678963953e-01  0.0000000000000000e+00 5.3482132190885372e-02 3.4421466969721415e-01  0.0000000000000000e+00 5.3580019923462105e-02 3.4328307187322687e-01  0.0000000000000000e+00 5.3681991621957317e-02 3.4233032581228723e-01  0.0000000000000000e+00 5.3797540801941664e-02 3.4127194238511982e-01  0.0000000000000000e+00 5.3925878629127150e-02 3.4012018611395434e-01  0.0000000000000000e+00 5.4062247754700969e-02 3.3892302451451112e-01  0.0000000000000000e+00 5.4221083439124795e-02 3.3756127886760662e-01  0.0000000000000000e+00 5.4392141573585580e-02 3.3613257755646692e-01  0.0000000000000000e+00 5.4570322490273035e-02 3.3468297950660464e-01  0.0000000000000000e+00 5.4772896286481333e-02 3.3308059745582957e-01  0.0000000000000000e+00 5.5002247997509524e-02 3.3132122502796812e-01  0.0000000000000000e+00 5.5243890486267544e-02 3.2952559628545181e-01  0.0000000000000000e+00 5.5497026214401127e-02 3.2770500705143851e-01  0.0000000000000000e+00 5.5780436288369539e-02 3.2573559048133727e-01  0.0000000000000000e+00 5.6096215984379950e-02 3.2361627680161936e-01  0.0000000000000000e+00 5.6432452726212785e-02 3.2144481294976901e-01  0.0000000000000000e+00 5.6801696183710358e-02 3.1915240425274050e-01  0.0000000000000000e+00 5.7202775652802525e-02 3.1676062247553849e-01  0.0000000000000000e+00 5.7636280408630662e-02 3.1428263189139410e-01  0.0000000000000000e+00 5.8102690239097539e-02 3.1172903846400907e-01  0.0000000000000000e+00 5.8627343142532276e-02 3.0898934400262068e-01  0.0000000000000000e+00 5.9190945135028809e-02 3.0617848556712812e-01  0.0000000000000000e+00 5.9802966899805146e-02 3.0327903391523936e-01  0.0000000000000000e+00 6.0471333959012358e-02 3.0026350625113468e-01  0.0000000000000000e+00 6.1195420648737217e-02 2.9716981413133570e-01  0.0000000000000000e+00 6.1999884348127560e-02 2.9391449758130106e-01  0.0000000000000000e+00 6.2874807444713160e-02 2.9057201282282663e-01  0.0000000000000000e+00 6.3823407925022196e-02 2.8715760621102371e-01  0.0000000000000000e+00 6.4872766222188169e-02 2.8360626248399323e-01  0.0000000000000000e+00 6.6020621821648653e-02 2.7996502008635221e-01  0.0000000000000000e+00 6.7272857609019687e-02 2.7624387813814866e-01  0.0000000000000000e+00 6.8606016642064005e-02 2.7250502051013437e-01  0.0000000000000000e+00 7.1906678012566269e-02 2.6436778940465122e-01  0.0000000000000000e+00 7.3763738511342242e-02 2.6028006879402388e-01  0.0000000000000000e+00 7.5800292311054882e-02 2.5615098644382228e-01  0.0000000000000000e+00 7.8105855048282283e-02 2.5186035247110583e-01  0.0000000000000000e+00 8.0657758037115404e-02 2.4753038660709445e-01  0.0000000000000000e+00 8.3497025869416819e-02 2.4314045351968866e-01  0.0000000000000000e+00 8.6670905350914096e-02 2.3871879392902051e-01  0.0000000000000000e+00 9.0231524106675870e-02 2.3425286725703046e-01  0.0000000000000000e+00 9.4216810236041532e-02 2.2978748902254933e-01  0.0000000000000000e+00 9.8682828225576363e-02 2.2534364349389993e-01  0.0000000000000000e+00 1.0378450010121690e-01 2.2087145761740981e-01  0.0000000000000000e+00 1.0950640686672068e-01 2.1648866034379810e-01  0.0000000000000000e+00 1.1601036560924646e-01 2.1217056882564114e-01  0.0000000000000000e+00 1.2347157074712159e-01 2.0792907595492796e-01  0.0000000000000000e+00 1.3202127135833602e-01 2.0381954478850053e-01  0.0000000000000000e+00 1.4182791933861688e-01 1.9989960518711353e-01  0.0000000000000000e+00 1.5312828660481168e-01 1.9620380531282097e-01  0.0000000000000000e+00 1.6620698875950626e-01 1.9279197468383533e-01  0.0000000000000000e+00 1.8143567315152873e-01 1.8972109046478150e-01  0.0000000000000000e+00 1.9919117973549794e-01 1.8707337426173351e-01  0.0000000000000000e+00 2.1972726216753846e-01 1.8494599933282138e-01  0.0000000000000000e+00 2.4413730558840202e-01 1.8344089186629819e-01  0.0000000000000000e+00 2.7271745235678890e-01 1.8270185352042490e-01  0.0000000000000000e+00 3.0623346129389867e-01 1.8288479404630786e-01  0.0000000000000000e+00 3.4542404296118817e-01 1.8421175173781751e-01  0.0000000000000000e+00 3.9083591024280639e-01 1.8694381947838912e-01  0.0000000000000000e+00 4.4268514757369881e-01 1.9139324148855064e-01  0.0000000000000000e+00 5.0041182296949227e-01 1.9801854528614565e-01  0.0000000000000000e+00 5.6189480763115340e-01 2.0726984448838459e-01  0.0000000000000000e+00 6.2344728870986466e-01 2.2001316112160785e-01  0.0000000000000000e+00 6.7876585355330854e-01 2.3714122285927461e-01  0.0000000000000000e+00 7.2043536054072399e-01 2.6003136923024767e-01  0.0000000000000000e+00 7.4179333306907713e-01 2.9108596845509360e-01  0.0000000000000000e+00 7.3887539478845898e-01 3.3342792261445608e-01  0.0000000000000000e+00 7.0946236439939225e-01 3.9207453023540978e-01  0.0000000000000000e+00 6.4833099944967931e-01 4.7336472705145610e-01  0.0000000000000000e+00 5.4367944839933702e-01 5.8221608066665020e-01  0.0000000000000000e+00 3.9537578059205852e-01 6.9174161324251648e-01  0.0000000000000000e+00 2.3233587023358368e-01 7.3753446867553984e-01  0.0000000000000000e+00 1.9956078094182036e-01 6.8684942120323511e-01  0.0000000000000000e+00 5.0053561793767287e-01 4.6135553782945221e-01  0.0000000000000000e+00 5.0416044898024548e-01 2.4827008330389425e-01  0.0000000000000000e+00 2.1694112320456743e-01 2.0529469404765605e-01  0.0000000000000000e+00 1.0006328784519042e-01 2.3578852787126772e-01  0.0000000000000000e+00 6.6147737977650070e-02 2.9044402377334655e-01  0.0000000000000000e+00 5.4238006622633408e-02 3.5060648822574464e-01  0.0000000000000000e+00 5.0947772349024117e-02 4.1019591952024970e-01  0.0000000000000000e+00 5.1986261998589821e-02 4.6618542892554865e-01  0.0000000000000000e+00 5.5980176386721536e-02 5.1683568466972452e-01  0.0000000000000000e+00 6.2382245058498639e-02 5.6127168051366438e-01  0.0000000000000000e+00 7.0820171610207455e-02 5.9917396731338501e-01  0.0000000000000000e+00 8.0832278998754031e-02 6.3038819390594258e-01  0.0000000000000000e+00 9.1838188141658991e-02 6.5549414698453645e-01  0.0000000000000000e+00 1.0331718237615384e-01 6.7543407185345961e-01  0.0000000000000000e+00 1.1474275393212287e-01 6.9086753469132123e-01  0.0000000000000000e+00 1.2571154769946347e-01 7.0280090043093679e-01  0.0000000000000000e+00 1.4457621643180668e-01 7.1826823426966036e-01  0.0000000000000000e+00 1.5346260273944592e-01 7.2401151434341304e-01  0.0000000000000000e+00 1.5970646822107107e-01 7.2725318347137635e-01  0.0000000000000000e+00 1.6497774937171811e-01 7.2981276104783466e-01  0.0000000000000000e+00 1.6895417292608442e-01 7.3156021378822889e-01  0.0000000000000000e+00 1.7140394629087782e-01 7.3256532493901427e-01  0.0000000000000000e+00 1.7238698997916746e-01 7.3295194364042404e-01  0.0000000000000000e+00 1.7202606675592111e-01 7.3281066388923954e-01  0.0000000000000000e+00 1.7022500111484554e-01 7.3208298533174432e-01  0.0000000000000000e+00 1.6753575193470457e-01 7.3095721071791786e-01  0.0000000000000000e+00 1.6272619553287113e-01 7.2876053950671027e-01  0.0000000000000000e+00 1.5682190914409908e-01 7.2573370688441841e-01  0.0000000000000000e+00 1.4970520632009102e-01 7.2162410638442909e-01  0.0000000000000000e+00 1.4166537337819338e-01 7.1622509184288063e-01  0.0000000000000000e+00 1.3248947692037541e-01 7.0896817278570889e-01  0.0000000000000000e+00 1.2231105153763859e-01 6.9932743430783328e-01  0.0000000000000000e+00 1.1165973782271224e-01 6.8702225126901639e-01  0.0000000000000000e+00 1.0078220689697219e-01 6.7139398627350788e-01  0.0000000000000000e+00 9.0025588523288014e-02 6.5179678364375360e-01  0.0000000000000000e+00 7.9786229705914688e-02 6.2755407734256041e-01  0.0000000000000000e+00 7.0523872201137094e-02 5.9796280280888536e-01  0.0000000000000000e+00 6.2695912816116334e-02 5.6297324791906678e-01  0.0000000000000000e+00 5.6654651812245965e-02 5.2270044661841097e-01  0.0000000000000000e+00 5.2615416264559331e-02 4.7754927662837432e-01  0.0000000000000000e+00 5.0864576554566464e-02 4.2832591716217555e-01  0.0000000000000000e+00 5.2081837225488745e-02 3.7622008762288361e-01  0.0000000000000000e+00 5.7971559598622352e-02 3.2290952912616883e-01  0.0000000000000000e+00 7.3089124721291102e-02 2.7128004181610138e-01  0.0000000000000000e+00 1.1038424529045847e-01 2.2706812549224581e-01  0.0000000000000000e+00 2.0725725349921709e-01 2.0160288113110122e-01  0.0000000000000000e+00 4.3547518900226762e-01 2.1465189573731419e-01  0.0000000000000000e+00 6.6357915528752565e-01 2.6668589883590943e-01  0.0000000000000000e+00 7.2764458491146455e-01 3.2503289496120885e-01  0.0000000000000000e+00 7.2554621601877112e-01 3.6242510425509328e-01  0.0000000000000000e+00 7.2031849973655071e-01 3.7791223082380720e-01  0.0000000000000000e+00 7.2332236167162334e-01 3.7437263328541154e-01  0.0000000000000000e+00 7.3190451679711077e-01 3.5841332285214839e-01  0.0000000000000000e+00 7.4124670337072551e-01 3.3554039555987664e-01  0.0000000000000000e+00 7.4629630986320672e-01 3.1002619404383841e-01  0.0000000000000000e+00 7.4243037155014591e-01 2.8542913884474430e-01  0.0000000000000000e+00 7.2688463242636969e-01 2.6365852466492901e-01  0.0000000000000000e+00 6.9923488809936019e-01 2.4519111303962690e-01  0.0000000000000000e+00 6.6093504689803662e-01 2.2993014731155928e-01  0.0000000000000000e+00 6.1542651912408086e-01 2.1752160399720596e-01  0.0000000000000000e+00 5.6654600741765826e-01 2.0768523244709619e-01  0.0000000000000000e+00 5.1723673622499988e-01 1.9993966371354896e-01  0.0000000000000000e+00 4.6946574730362023e-01 1.9394601894234856e-01  0.0000000000000000e+00 4.2562364853603674e-01 1.8953019151038514e-01  0.0000000000000000e+00 3.8541287121018636e-01 1.8636185109476816e-01  0.0000000000000000e+00 3.4942718007707058e-01 1.8419416485929713e-01  0.0000000000000000e+00 3.1734525284387816e-01 1.8299478982669609e-01  0.0000000000000000e+00 2.8907246858752988e-01 1.8250210941355782e-01  0.0000000000000000e+00 2.6434620931278430e-01 1.8267394383141833e-01  0.0000000000000000e+00 2.4258889453724594e-01 1.8337168039962648e-01  0.0000000000000000e+00 2.2342192495754301e-01 1.8453653530191935e-01  0.0000000000000000e+00 2.0657257535069434e-01 1.8608193135304810e-01  0.0000000000000000e+00 1.7858466510826113e-01 1.9011347607559279e-01  0.0000000000000000e+00 1.6699198497836176e-01 1.9249540324431613e-01  0.0000000000000000e+00 1.5664674695455147e-01 1.9509362157413351e-01  0.0000000000000000e+00 1.4746020186068312e-01 1.9785048153827045e-01  0.0000000000000000e+00 1.3926106921002404e-01 2.0074775547261486e-01  0.0000000000000000e+00 1.3192139494557578e-01 2.0375958006115844e-01  0.0000000000000000e+00 1.2533300024209382e-01 2.0686797930704509e-01  0.0000000000000000e+00 1.1940844833746288e-01 2.1004993303947461e-01  0.0000000000000000e+00 1.1406166912436268e-01 2.1329447798351686e-01  0.0000000000000000e+00 1.0922611334191695e-01 2.1658552569106931e-01  0.0000000000000000e+00 1.0484356257755935e-01 2.1991403446200991e-01  0.0000000000000000e+00 1.0087670208129958e-01 2.2324884061603653e-01  0.0000000000000000e+00 9.7237935610462151e-02 2.2662645189515698e-01  0.0000000000000000e+00 9.3912666157680513e-02 2.3001421060934996e-01  0.0000000000000000e+00 9.0893254006310376e-02 2.3337834702830018e-01  0.0000000000000000e+00 8.8084578506917824e-02 2.3679099616770560e-01  0.0000000000000000e+00 8.5510389194158307e-02 2.4018721921067693e-01  0.0000000000000000e+00 8.3178908884687250e-02 2.4351781858920177e-01  0.0000000000000000e+00 8.1013460599216686e-02 2.4685889142134404e-01  0.0000000000000000e+00 7.9013787293493273e-02 2.5017389179071609e-01  0.0000000000000000e+00 7.7163281923643939e-02 2.5346961580144095e-01  0.0000000000000000e+00 7.5451781843629454e-02 2.5673494106850375e-01  0.0000000000000000e+00 7.3861168358900456e-02 2.5997735321854942e-01  0.0000000000000000e+00 7.2380585190376406e-02 2.6319887824592297e-01  0.0000000000000000e+00 7.1018036117933642e-02 2.6635280295610586e-01  0.0000000000000000e+00 6.9746408977292201e-02 2.6948288070894455e-01  0.0000000000000000e+00 6.8554866185077848e-02 2.7259049963136761e-01  0.0000000000000000e+00 6.7461126361747684e-02 2.7561317072711256e-01  0.0000000000000000e+00 6.6430266541138996e-02 2.7862569758498545e-01  0.0000000000000000e+00 6.5469182934405651e-02 2.8159039676660785e-01  0.0000000000000000e+00 6.4575468375166256e-02 2.8449673468856462e-01  0.0000000000000000e+00 6.3740565676037558e-02 2.8735525149755509e-01  0.0000000000000000e+00 6.2961087679991756e-02 2.9016127502311029e-01  0.0000000000000000e+00 6.2229907011227527e-02 2.9292618973159718e-01  0.0000000000000000e+00 6.1540173296015771e-02 2.9566281971732739e-01  0.0000000000000000e+00 6.0906708232650153e-02 2.9829482343673552e-01  0.0000000000000000e+00 6.0316425595663775e-02 3.0086185329901183e-01  0.0000000000000000e+00 5.9749226541446737e-02 3.0344104343900818e-01  0.0000000000000000e+00 5.9226472418379868e-02 3.0592342163246189e-01  0.0000000000000000e+00 5.8742784415088345e-02 3.0831968610186816e-01  0.0000000000000000e+00 5.8285780051708744e-02 3.1067841372240695e-01  0.0000000000000000e+00 5.7859686869317667e-02 3.1296685896987325e-01  0.0000000000000000e+00 5.7457164597140523e-02 3.1521680954734810e-01  0.0000000000000000e+00 5.7088352077819073e-02 3.1735612746960790e-01  0.0000000000000000e+00 5.6738476424438342e-02 3.1946412315584716e-01  0.0000000000000000e+00 5.6414102002685984e-02 3.2148837986470719e-01  0.0000000000000000e+00 5.6109189571629456e-02 3.2345998860943337e-01  0.0000000000000000e+00 5.5821333084392591e-02 3.2538674447883559e-01  0.0000000000000000e+00 5.5559284146904094e-02 3.2719990600846743e-01  0.0000000000000000e+00 5.5316419068266044e-02 3.2893357519725303e-01  0.0000000000000000e+00 5.5084127337011672e-02 3.3064394345916104e-01  0.0000000000000000e+00 5.4871889470251366e-02 3.3225456949893578e-01  0.0000000000000000e+00 5.4677174356568436e-02 3.3377486127554379e-01  0.0000000000000000e+00 5.4494823083883953e-02 3.3523829852833426e-01  0.0000000000000000e+00 5.4325009549845343e-02 3.3663678081112758e-01  0.0000000000000000e+00 5.4171034005507435e-02 3.3793746132372088e-01  0.0000000000000000e+00 5.7743577534218042e-02 3.1359870311475135e-01  0.0000000000000000e+00 6.8908541288077219e-01 2.4047565385248382e-01  0.0000000000000000e+00 5.4220119681178833e-02 3.3755595314960152e-01  0.0000000000000000e+00 1.9991769136534748e-01 1.8685497425635214e-01  0.0000000000000000e+00 5.4167094622358983e-02 3.3795901767265707e-01  0.0000000000000000e+00 1.3338801837220474e-01 2.1641125769434311e-01  0.0000000000000000e+00 5.7996903270152070e-02 3.1228985245954394e-01  0.0000000000000000e+00 7.1277296600085971e-02 2.6580358378441926e-01  0.0000000000000000e+00 1.3843862221226297e-01 7.1395576787438964e-01  0.0000000000000000e+00 5.9509400444025473e-01 2.1364611798520319e-01  0.0000000000000000e+00 6.2719040861894920e-02 2.9105759236409806e-01  0.0000000000000000e+00 6.0317893215059837e-01 2.5704554588174949e-01  0.0000000000000000e+00 7.2397931720270836e-01 3.6729928379357585e-01  0.0000000000000000e+00 6.8114855202502281e-02 2.7378015718011883e-01  0.0000000000000000e+00 2.5980125916059393e-01 1.8291798676690257e-01  0.0000000000000000e+00 5.3502594167330268e-02 3.4400426222204356e-01  0.0000000000000000e+00 5.1360702935921515e-02 4.5137451292243502e-01  0.0000000000000000e+00 1.0457788890891015e-01 6.7728927241399794e-01  0.0000000000000000e+00 5.3158932901000294e-02 3.4738845968581378e-01  0.0000000000000000e+00 7.8160325214012061e-02 2.5166183309747991e-01  0.0000000000000000e+00 1.4827840430932399e-01 1.9769601113318092e-01  0.0000000000000000e+00 9.5862334026746293e-02 2.2797562928325568e-01  0.0000000000000000e+00 5.3138926028103925e-02 3.4759214001088762e-01  0.0000000000000000e+00 1.5678890765663470e-01 7.2579693976439252e-01  0.0000000000000000e+00 1.0221905042558750e-01 2.2217227024907735e-01  0.0000000000000000e+00 1.1728096232519712e-01 2.1129175167305117e-01  0.0000000000000000e+00 5.3311478549420456e-02 3.4584025358464693e-01  0.0000000000000000e+00 5.5769751523291104e-02 3.2572563908299268e-01  0.0000000000000000e+00 4.0690497097189832e-01 1.8795853477104849e-01  0.0000000000000000e+00 5.8533740356407044e-02 5.3721160920140421e-01  0.0000000000000000e+00 6.1759133404044833e-02 2.9485643562582120e-01  0.0000000000000000e+00 5.5406800708172270e-02 3.2833785296787454e-01  0.0000000000000000e+00 1.7008108599991240e-01 7.3205371377396622e-01  0.0000000000000000e+00 8.5637753212211690e-02 2.4010453305762014e-01  0.0000000000000000e+00 1.4391431089403800e-01 1.9904529030504825e-01  0.0000000000000000e+00 5.3586334053856551e-02 3.4317689216848712e-01  0.0000000000000000e+00 2.9496591061010652e-01 7.3088694175154845e-01  0.0000000000000000e+00 7.3435152146201499e-01 3.5254287125556250e-01  0.0000000000000000e+00 5.4843897925494212e-02 3.3246003470350971e-01  0.0000000000000000e+00 5.9606277333165029e-02 3.0409524110298419e-01  0.0000000000000000e+00 2.7543551562156654e-01 1.8251849063641443e-01  0.0000000000000000e+00 9.5293092952466560e-02 6.6206994102604344e-01  0.0000000000000000e+00 6.5517667622358375e-02 2.8152525880838053e-01  0.0000000000000000e+00 5.3327045003546680e-02 3.4570198600136748e-01  0.0000000000000000e+00 5.9658833888953128e-02 3.0393357545733724e-01  0.0000000000000000e+00 1.6101657804252198e-01 7.2794767953081607e-01  0.0000000000000000e+00 5.1943757798236435e-02 3.7892937137946420e-01  0.0000000000000000e+00 7.7337197533786123e-02 2.5323205215167011e-01  0.0000000000000000e+00 4.2022305703547624e-01 1.8930762935734713e-01  0.0000000000000000e+00 5.6658283657821176e-02 3.1994930125501425e-01  0.0000000000000000e+00 5.4776035210359605e-02 3.3303629435625587e-01  0.0000000000000000e+00 7.1820785394124301e-02 2.6446274227011118e-01  0.0000000000000000e+00 6.5548849195113834e-02 5.7711674841846672e-01  0.0000000000000000e+00 8.4410062255603088e-02 2.4171893184571067e-01  0.0000000000000000e+00 5.4399976716102261e-01 2.0395804043265980e-01  0.0000000000000000e+00 5.6367974378388863e-02 3.2184084425235177e-01  0.0000000000