<?xml version="1.0"?>
<VTKFile type="UnstructuredGrid"  version="0.1"  >
<UnstructuredGrid>
<Piece  NumberOfPoints="4940" NumberOfCells="9650">
<Points>
<DataArray  type="Float64"  NumberOfComponents="3"  format="ascii">500 250 0  0 250 0  250 500 0  250 0 0  256.8885856082646 499.9050767557906 0  263.7719401218049 499.6203791065173 0  270.6448364229772 499.1461232471188 0  277.5020553257866 498.4826693209355 0  284.3383895508592 497.6305211460281 0  291.1486476865662 496.5903258312597 0  297.9276581259182 495.3628732847843 0  304.6702729675493 493.9490956196674 0  311.3713719748657 492.3500664368026 0  318.0258664141369 490.5670000199653 0  324.6287029687753 488.6012504015818 0  331.1748675330201 486.4543103455647 0  337.6593890460416 484.1278102064655 0  344.0773432429536 481.6235166997244 0  350.4238564271474 478.9433315480048 0  356.694109139292 476.0892900492477 0  362.88333985546 473.0635595140469 0  368.9868485575419 469.8684376402048 0  375.0000003153078 466.5063507640667 0  380.9182288257928 462.9798520074548 0  386.7370398729688 459.2916193419558 0  392.4520147244077 455.444453565817 0  398.0588135356345 451.4412761437442 0  403.5531785622926 447.285127045646 0  408.9309374414144 442.9791624087773 0  414.1880064015299 438.5266521049243 0  419.3203932989752 433.9309773069245 0  424.324200661095 429.1956279150535 0  429.1956286596235 424.3241998957182 0  433.9309780058756 419.3203925397119 0  438.5266527445345 414.1880056671062 0  442.9791630130591 408.9309367076756 0  447.2851276060475 403.5531778422888 0  451.4412766621026 398.0588128303826 0  455.4444540361634 392.4520140460735 0  459.2916197786263 386.7370392045948 0  462.9798524073514 380.9182281752347 0  466.5063511234856 374.9999996927758 0  469.8684379657123 368.9868479560565 0  473.0635598144817 362.8833392617846 0  476.0892903190255 356.6941085676214 0  478.9433317963513 350.4238558609745 0  481.6235169154735 344.0773427117675 0  484.12781039012 337.6593885555221 0  486.4543105028062 331.1748670749914 0  488.601250531677 324.6287025528375 0  490.5670001317469 318.0258660188321 0  492.3500665291326 311.3713716102628 0  493.949095695951 304.6702726271575 0  495.3628733416623 297.9276578347343 0  496.5903258712341 291.1486474470129 0  497.6305211749058 284.3383893426084 0  498.4826693388848 277.502055163614 0  499.1461232580606 270.6448362909296 0  499.6203791109319 263.7719400417897 0  499.9050767571306 256.8885855596534 0  499.9050767559877 243.1114143988867 0  499.6203791069493 236.2280598860241 0  499.1461232485393 229.3551635941651 0  498.4826693235677 222.4979446979962 0  497.6305211491849 215.6616104719064 0  496.5903258357701 208.8513523404629 0  495.3628732906988 202.0723419043604 0  493.9490956264813 195.3297270628552 0  492.3500664487791 188.6286280724281 0  490.5670000344809 181.9741336371959 0  488.6012504175981 175.3712970824318 0  486.4543103623226 168.8251325157939 0  484.1278102222298 162.3406109960628 0  481.6235167152198 155.9226567951971 0  478.9433315621651 149.5761436051346 0  476.0892900516498 143.3058908657982 0  473.063559513628 137.1166601437124 0  469.8684376406648 131.0131514433083 0  466.5063507675389 124.9999996907064 0  462.9798520124137 119.0817711822745 0  459.2916193464549 113.2629601339176 0  455.4444535642773 107.5479852733717 0  451.4412761528674 101.9411864767781 0  447.2851270583545 96.44682145403524 0  442.9791624165781 91.06906256805769 0  438.5266521117469 85.81199360630404 0  433.9309773156125 80.67960671046254 0  429.1956279150353 75.67579933888632 0  424.3241998888952 70.80437133373906 0  419.3203925223282 66.06902197812161 0  414.1880056411937 61.47334723289828 0  408.9309366751728 57.0208369601728 0  403.5531778009394 52.71487236176898 0  398.058812796452 48.55872331295853 0  392.4520140187753 44.55554594490843 0  386.7370391799677 40.70838020528396 0  380.9182281475119 37.02014757560744 0  374.9999996718656 33.49364886444181 0  368.9868479340393 30.13156202237255 0  362.8833392380029 26.93644017348339 0  356.6941085456942 23.91070967062674 0  350.4238558420009 21.0566681953261 0  344.0773426899492 18.37648307566465 0  337.6593885328982 15.87218960140942 0  331.1748670549786 13.54568949032341 0  324.6287025315056 11.39874946165088 0  318.0258660010876 9.432999863235466 0  311.3713716017894 7.649933468721599 0  304.6702726190621 6.050904302234756 0  297.9276578269805 4.637126656823085 0  291.148647441857 3.409674127905504 0  284.3383893425031 2.369478825079682 0  277.502055159398 1.517330660648639 0  270.6448362875833 0.853876741662134 0  263.7719400401456 0.3796208889774277 0  256.8885855592052 0.09492324285704967 0  243.1114143979462 0.09492324403817065 0  236.2280598850882 0.3796208931023841 0  229.3551635938215 0.8538767514891958 0  222.4979446968584 1.517330676558146 0  215.6616104703111 2.369478851036291 0  208.8513523382973 3.409674164591252 0  202.0723419066374 4.637126708856528 0  195.3297270659513 6.050904372824903 0  188.628628074828 7.649933550613184 0  181.9741336377093 9.432999965373938 0  175.3712970793675 11.39874958336037 0  168.8251325057572 13.54568964112298 0  162.340610986655 15.87218978129263 0  155.9226567874317 18.37648328793418 0  149.576143602509 21.05666843898663 0  143.3058908718157 23.91070994551046 0  137.1166601505524 26.93644048291054 0  131.0131514451933 30.13156235831508 0  124.9999996848412 33.49364923584736 0  119.0817711715717 37.0201479941652 0  113.2629601211624 40.70838066187849 0  107.5479852622251 44.55554644345162 0  101.9411864693332 48.55872385260452 0  96.44682143286516 52.71487295812284 0  91.06906254351222 57.02083760363669 0  85.81199358272519 61.4733479087879 0  80.67960667988106 66.06902271253972 0  75.67579930062769 70.80437212218331 0  70.80437129287643 75.67580015310926 0  66.06902193673014 80.67960752263491 0  61.47334718684866 85.81199441168215 0  57.02083692524275 91.0690633672404 0  52.71487232786438 96.44682224262129 0  48.55872328070024 101.941187247437 0  44.55554591578033 107.5479860232332 0  40.7083801742321 113.2629608675606 0  37.02014754791168 119.0817718975441 0  33.49364883372994 125.000000381329 0  30.13156199866361 131.0131521097709 0  26.9364401549829 137.1166607985551 0  23.91070965524918 143.3058914868915 0  21.05666818346614 149.576144185037 0  18.37648306853811 155.9226573275967 0  15.8721895918909 162.3406114925245 0  13.54568948170046 168.8251329701392 0  11.39874945301878 175.3712974960928 0  9.432999857087736 181.9741340206533 0  7.649933466342702 188.6286284076045 0  6.050904301250966 195.3297273853278 0  4.637126656808988 202.0723421730917 0  3.409674127767772 208.8513525589684 0  2.369478824521138 215.6616106615248 0  1.517330660909465 222.4979448382452 0  0.8538767414496533 229.355163714981 0  0.3796208887135322 236.2280599646376 0  0.09492324266324204 243.1114144478261 0  0.0949232442452228 256.8885856095658 0  0.3796208935834784 263.7719401236316 0  0.8538767530323526 270.6448364248016 0  1.517330679476544 277.5020553295092 0  2.369478854618649 284.3383895555228 0  3.409674170191892 291.1486476952655 0  4.6371267162381 297.9276581311522 0  6.050904381420935 304.6702729724059 0  7.649933562385399 311.3713719716595 0  9.43299997979841 318.0258664133013 0  11.3987495994252 324.6287029719946 0  13.54568965885832 331.174867545904 0  15.87218979367188 337.6593890464085 0  18.37648329843151 344.0773432384132 0  21.05666844777872 350.423856417535 0  23.91070995156048 356.6941091410045 0  26.93644048988043 362.8833398632205 0  30.13156235982007 368.9868485575877 0  33.49364924138357 375.0000003247478 0  37.0201480006036 380.9182288389023 0  40.70838066758398 386.7370398875706 0  44.55554644477201 392.4520147396792 0  48.55872386086904 398.0588135419111 0  52.71487295981296 403.5531785693063 0  57.02083760525949 408.9309374584583 0  61.47334790862246 414.1880064170849 0  66.06902271205095 419.320393319588 0  70.80437211216579 424.3242006890749 0  75.67580013809859 429.195628692521 0  80.6796075127923 433.930978054209 0  85.81199439754931 438.5266528008431 0  91.06906334717917 442.9791630582355 0  96.44682221438322 447.2851276501571 0  101.9411872243843 451.441276702356 0  107.5479859945825 455.4444540643537 0  113.2629608446994 459.2916198108319 0  119.0817718768376 462.9798524393601 0  125.0000003647644 466.5063511567065 0  131.0131521012763 469.8684379967393 0  137.1166607840049 473.0635598376539 0  143.3058914748804 476.0892903390826 0  149.5761441732679 478.9433318113714 0  155.9226573130112 481.6235169255377 0  162.3406114779862 484.1278104026658 0  168.8251329570439 486.4543105138039 0  175.3712974805475 488.601250542119 0  181.9741340135204 490.5670001408953 0  188.6286284005059 492.3500665318597 0  195.3297273788229 493.9490956972913 0  202.0723421640089 495.3628733414168 0  208.8513525529672 496.5903258712308 0  215.6616106544547 497.6305211744985 0  222.4979448327038 498.4826693384772 0  229.3551637102845 499.1461232581612 0  236.2280599621369 499.6203791111485 0  243.1114144470173 499.9050767573145 0  155.2373389820306 474.8197567317462 0  25.36256300907667 153.9152755065208 0  432.3709625126712 412.6214396304305 0  6.013151705810699 246.637913163471 0  246.6379131630491 493.986848294322 0  338.6995838441862 22.68244767887072 0  477.3175523131281 338.6995838660569 0  493.9868482700757 246.6379131399102 0  246.6201155078769 6.218451882810491 0  417.6179310263282 72.7156044707053 0  102.2232990934413 445.0100869616822 0  63.66330858966404 92.20354579482142 0  391.3105220491464 50.73522820883105 0  72.79295043967942 418.0702734974704 0  448.290574428537 108.25674339002 0  402.4604651193511 440.7462829841712 0  97.55317348421397 59.11376320116034 0  136.7376477664901 33.58246472647134 0  363.3288394375288 465.6947312928271 0  44.0678766556007 381.0860953771871 0  469.6905266180034 142.3890690100806 0  22.68244791668644 338.6995843487432 0  338.699584349159 477.317552078365 0  173.389488083762 18.6681884918202 0  483.4809734778481 179.7121987795732 0  13.50237455842738 306.4709525540879 0  305.9825168523021 487.24416992
[...]
<PointData  Vectors="f_12"> 
<DataArray  type="Float64"  Name="f_12"  NumberOfComponents="3" format="ascii">0.0000000000000000e+00 3.0223163757447522e-02 1.5154998819043686e-01  0.0000000000000000e+00 2.7588718559421532e-01 4.5507747891882978e-02  0.0000000000000000e+00 1.9192383005585501e-02 3.5158604096779017e-01  0.0000000000000000e+00 2.4227121702799476e-02 5.4118813302321578e-01  0.0000000000000000e+00 1.9197752245501954e-02 3.5555956880450934e-01  0.0000000000000000e+00 1.9206912033522438e-02 3.5902330142146582e-01  0.0000000000000000e+00 1.9218344192017810e-02 3.6250363923833345e-01  0.0000000000000000e+00 1.9232331319086124e-02 3.6554314100871871e-01  0.0000000000000000e+00 1.9247296174025461e-02 3.6834414142111338e-01  0.0000000000000000e+00 1.9261769606790796e-02 3.7086330698921116e-01  0.0000000000000000e+00 1.9276311208667716e-02 3.7311059146307146e-01  0.0000000000000000e+00 1.9290457117915397e-02 3.7513430571614814e-01  0.0000000000000000e+00 1.9303247547348482e-02 3.7687706916071168e-01  0.0000000000000000e+00 1.9314557379763501e-02 3.7831091101579267e-01  0.0000000000000000e+00 1.9321938167047335e-02 3.7907381133828999e-01  0.0000000000000000e+00 1.9330773646841281e-02 3.8031411245151137e-01  0.0000000000000000e+00 1.9331661426791085e-02 3.8025753218443986e-01  0.0000000000000000e+00 1.9333212784237355e-02 3.8053314001888749e-01  0.0000000000000000e+00 1.9332015348112443e-02 3.8037280302829335e-01  0.0000000000000000e+00 1.9328486146141560e-02 3.7998041680691158e-01  0.0000000000000000e+00 1.9321274165677194e-02 3.7941509007001439e-01  0.0000000000000000e+00 1.9312452161064624e-02 3.7822225669381637e-01  0.0000000000000000e+00 1.9301879928692752e-02 3.7669646623524450e-01  0.0000000000000000e+00 1.9289006414729064e-02 3.7530080487358108e-01  0.0000000000000000e+00 1.9275480234477296e-02 3.7356943661928715e-01  0.0000000000000000e+00 1.9261181684217255e-02 3.7135666545128732e-01  0.0000000000000000e+00 1.9246132200417720e-02 3.6857728884453417e-01  0.0000000000000000e+00 1.9231285979941851e-02 3.6599051313066605e-01  0.0000000000000000e+00 1.9216915672121186e-02 3.6318942025002776e-01  0.0000000000000000e+00 1.9204713791262526e-02 3.5968489994671854e-01  0.0000000000000000e+00 1.9194665662865963e-02 3.5626867630534431e-01  0.0000000000000000e+00 1.9187778859827604e-02 3.5251287394085534e-01  0.0000000000000000e+00 1.9185764665343892e-02 3.4847668947419586e-01  0.0000000000000000e+00 1.9186591539031558e-02 3.4441529710703372e-01  0.0000000000000000e+00 1.9195548237586339e-02 3.3973292866868671e-01  0.0000000000000000e+00 1.9212180319684642e-02 3.3494344291858719e-01  0.0000000000000000e+00 1.9230961220082225e-02 3.3028396332595106e-01  0.0000000000000000e+00 1.9262477555415367e-02 3.2506487031963377e-01  0.0000000000000000e+00 1.9311784832010764e-02 3.1928333862130082e-01  0.0000000000000000e+00 1.9368946528182825e-02 3.1357411817435960e-01  0.0000000000000000e+00 1.9432613311553659e-02 3.0799802042444135e-01  0.0000000000000000e+00 1.9517503668669823e-02 3.0193944798020683e-01  0.0000000000000000e+00 1.9625470990782719e-02 2.9538232400662828e-01  0.0000000000000000e+00 1.9748580279131914e-02 2.8883366867707677e-01  0.0000000000000000e+00 1.9900017725610283e-02 2.8197645080810158e-01  0.0000000000000000e+00 2.0074533844986499e-02 2.7494057807642264e-01  0.0000000000000000e+00 2.0275611310764895e-02 2.6778224702509701e-01  0.0000000000000000e+00 2.0505753147823949e-02 2.6055857286744832e-01  0.0000000000000000e+00 2.0789330694674087e-02 2.5279687210670482e-01  0.0000000000000000e+00 2.1108907478360132e-02 2.4499407469851653e-01  0.0000000000000000e+00 2.1474326273881652e-02 2.3712237864631316e-01  0.0000000000000000e+00 2.1898246588484525e-02 2.2900046298850060e-01  0.0000000000000000e+00 2.2374822542730342e-02 2.2088262578107171e-01  0.0000000000000000e+00 2.2946721833139876e-02 2.1235683019238644e-01  0.0000000000000000e+00 2.3594554373060527e-02 2.0380286354041829e-01  0.0000000000000000e+00 2.4322281961114182e-02 1.9530581290029306e-01  0.0000000000000000e+00 2.5175094186031984e-02 1.8660842716570869e-01  0.0000000000000000e+00 2.6148603888417367e-02 1.7797665121569672e-01  0.0000000000000000e+00 2.7240553412418420e-02 1.6933994229469054e-01  0.0000000000000000e+00 2.8462827562009449e-02 1.6090633543239391e-01  0.0000000000000000e+00 3.1850104510670628e-02 1.4316618758295493e-01  0.0000000000000000e+00 3.3864320779716343e-02 1.3482699088833261e-01  0.0000000000000000e+00 3.6178924010519017e-02 1.2675580265935957e-01  0.0000000000000000e+00 3.8960255893560662e-02 1.1858204396902532e-01  0.0000000000000000e+00 4.2209496883861143e-02 1.1075763111607526e-01  0.0000000000000000e+00 4.6009631311828475e-02 1.0315446362161278e-01  0.0000000000000000e+00 5.0495504602851973e-02 9.5985085209029597e-02  0.0000000000000000e+00 5.5819100719613726e-02 8.9135697176287859e-02  0.0000000000000000e+00 6.2103825911222640e-02 8.2731587586840280e-02  0.0000000000000000e+00 6.9558779868732143e-02 7.6770642597344160e-02  0.0000000000000000e+00 7.8726858206536798e-02 7.1147831674982412e-02  0.0000000000000000e+00 8.9532040747869135e-02 6.6104295047566125e-02  0.0000000000000000e+00 1.0255361068561314e-01 6.1538998780811101e-02  0.0000000000000000e+00 1.1862442775256006e-01 5.7457799938936148e-02  0.0000000000000000e+00 1.3835991286805741e-01 5.3886944688490944e-02  0.0000000000000000e+00 1.6268808387283007e-01 5.0903410886880530e-02  0.0000000000000000e+00 1.9300305359687836e-01 4.8482761047646601e-02  0.0000000000000000e+00 2.3150271561278096e-01 4.6748998128406931e-02  0.0000000000000000e+00 2.8104616007073152e-01 4.5807691655590607e-02  0.0000000000000000e+00 3.4529811207255257e-01 4.5832949219175981e-02  0.0000000000000000e+00 4.2818688099382946e-01 4.7184470970478565e-02  0.0000000000000000e+00 5.3856463019503187e-01 5.0976630859665410e-02  0.0000000000000000e+00 6.6575884185211276e-01 5.7601871135125160e-02  0.0000000000000000e+00 7.9667180715420038e-01 6.9841439418018653e-02  0.0000000000000000e+00 8.7459571178685624e-01 9.7612616296535712e-02  0.0000000000000000e+00 9.3880811730598845e-01 7.1236752494662117e-02  0.0000000000000000e+00 6.9690811225233440e-01 5.3754751441870186e-01  0.0000000000000000e+00 7.3473657528569616e-02 6.9755279434367401e-01  0.0000000000000000e+00 2.2735754772689543e-01 2.3408698242646322e-01  0.0000000000000000e+00 5.1312684732621117e-01 4.9929211225445286e-01  0.0000000000000000e+00 1.7051150364647319e-01 6.7818408427828947e-01  0.0000000000000000e+00 1.7418524470409133e-01 2.2712396630319834e-01  0.0000000000000000e+00 1.7365987070058481e-01 7.2689150325602428e-02  0.0000000000000000e+00 8.9909635583295178e-02 7.1928490404620279e-02  0.0000000000000000e+00 5.5062982942015816e-02 6.8560644980745503e-02  0.0000000000000000e+00 5.0620357803383720e-01 1.2406781111755866e-01  0.0000000000000000e+00 8.1896479960403290e-01 2.4755511415497586e-01  0.0000000000000000e+00 7.7639113309329311e-01 3.7349330467831160e-01  0.0000000000000000e+00 6.3157870668799365e-01 6.2798451680317602e-01  0.0000000000000000e+00 6.3075086269655123e-01 6.3433498659205401e-01  0.0000000000000000e+00 7.7470822736726708e-01 3.9070385123660428e-01  0.0000000000000000e+00 8.7924851278413207e-01 1.6173378631710025e-01  0.0000000000000000e+00 6.9682914428087817e-01 1.2442934574592547e-01  0.0000000000000000e+00 1.8711135011483521e-01 1.7717110973169450e-01  0.0000000000000000e+00 2.2133901179585216e-02 1.6823017214020966e-01  0.0000000000000000e+00 2.2343428693776934e-01 1.8839124731989917e-01  0.0000000000000000e+00 7.1008732704168387e-01 2.7624552450259948e-01  0.0000000000000000e+00 7.3546454084163349e-01 4.0655130424789743e-01  0.0000000000000000e+00 5.9952147414789192e-01 5.3861170833861238e-01  0.0000000000000000e+00 3.4989706471230764e-01 3.8204765959122083e-01  0.0000000000000000e+00 1.3305330935891677e-01 4.9587813400840042e-01  0.0000000000000000e+00 4.2062011449183456e-01 6.4413797081613533e-01  0.0000000000000000e+00 3.9301414414090874e-01 2.1165405331751538e-01  0.0000000000000000e+00 1.7382694185594814e-02 2.0831111494948143e-01  0.0000000000000000e+00 2.0937765470514107e-02 3.4358320174143520e-01  0.0000000000000000e+00 2.0177940116400086e-02 4.3509441431875651e-01  0.0000000000000000e+00 2.9783180690605780e-02 6.1726838441796616e-01  0.0000000000000000e+00 3.6878217685545348e-02 6.8477394688765736e-01  0.0000000000000000e+00 4.4625317385404095e-02 7.2706708038827339e-01  0.0000000000000000e+00 5.1463210709949907e-02 7.5754247506797967e-01  0.0000000000000000e+00 5.7071160421014018e-02 7.7818769887105743e-01  0.0000000000000000e+00 6.0690641830881374e-02 7.8970888006356355e-01  0.0000000000000000e+00 6.1870731339973978e-02 7.9324050261246559e-01  0.0000000000000000e+00 6.0822108352962416e-02 7.9012655045834501e-01  0.0000000000000000e+00 5.7506369645569495e-02 7.7947637935654057e-01  0.0000000000000000e+00 5.2992096789332206e-02 7.6386773857150059e-01  0.0000000000000000e+00 4.5993686327246028e-02 7.3412016728331497e-01  0.0000000000000000e+00 3.8812872759866161e-02 6.9400263570003917e-01  0.0000000000000000e+00 3.1978843850652694e-02 6.4158729902175649e-01  0.0000000000000000e+00 2.6289992646678809e-02 5.7630870198052586e-01  0.0000000000000000e+00 2.1940664696383207e-02 4.9727977525230416e-01  0.0000000000000000e+00 1.9836387651155033e-02 3.9659285876784933e-01  0.0000000000000000e+00 2.1022433607596171e-02 2.9757214753614386e-01  0.0000000000000000e+00 1.3348496555757684e-02 2.1564069937598479e-01  0.0000000000000000e+00 1.1082762332971753e-01 1.4269880898860868e-01  0.0000000000000000e+00 5.8581681306561650e-01 3.2892569554195838e-01  0.0000000000000000e+00 2.6486734615823071e-01 7.5763712060009081e-01  0.0000000000000000e+00 1.4689499717111520e-01 3.8214994052696161e-01  0.0000000000000000e+00 2.4782096946262988e-01 2.9016487845392130e-01  0.0000000000000000e+00 8.8157650286830619e-02 4.0090105011916183e-01  0.0000000000000000e+00 1.0123855919250109e-01 8.8976439400022789e-01  0.0000000000000000e+00 6.7300867407268228e-01 5.4326093835850764e-01  0.0000000000000000e+00 5.7263135278705191e-01 7.0267622033658850e-01  0.0000000000000000e+00 4.6938466373850400e-02 6.7522190870032461e-01  0.0000000000000000e+00 4.0368341723996407e-02 1.8964129104048927e-01  0.0000000000000000e+00 8.8408516694925193e-02 9.3307965672020529e-02  0.0000000000000000e+00 2.6593110742890952e-01 6.9178601651049235e-02  0.0000000000000000e+00 4.7762156576488013e-01 6.6245747603420016e-02  0.0000000000000000e+00 5.6349390927440923e-01 6.6147979471960827e-02  0.0000000000000000e+00 4.4837059462622231e-01 5.7718241331117082e-02  0.0000000000000000e+00 2.0952469794344961e-01 6.5693006958115502e-02  0.0000000000000000e+00 6.5836568816358951e-02 1.0187864146950626e-01  0.0000000000000000e+00 3.3501946993308898e-02 2.0273563850441212e-01  0.0000000000000000e+00 1.9513690967977955e-02 3.6057307809381239e-01  0.0000000000000000e+00 2.2574653055035438e-02 5.2821138878402618e-01  0.0000000000000000e+00 6.1940581424678808e-02 8.0882526797397780e-01  0.0000000000000000e+00 3.4667836307543193e-01 8.6863462205493891e-01  0.0000000000000000e+00 6.5979849371793897e-01 3.7001651611667274e-01  0.0000000000000000e+00 2.4117869495381056e-01 2.0034226257382498e-01  0.0000000000000000e+00 4.6885926969263005e-02 6.1341514729214186e-01  0.0000000000000000e+00 6.3118812960010817e-01 6.3915329311739932e-01  0.0000000000000000e+00 9.3820501926826738e-01 9.6067455380602684e-02  0.0000000000000000e+00 9.0923471325994398e-01 1.3302431765658079e-01  0.0000000000000000e+00 8.9682896718407301e-01 9.3289681752721232e-02  0.0000000000000000e+00 8.5019617610922715e-01 7.7244199836694755e-02  0.0000000000000000e+00 7.7739324477617278e-01 6.5902847500221851e-02  0.0000000000000000e+00 6.8589574976281698e-01 5.7704196576331454e-02  0.0000000000000000e+00 5.9135804186331364e-01 5.2187862577437835e-02  0.0000000000000000e+00 5.0581028521355331e-01 4.8755747787312974e-02  0.0000000000000000e+00 4.3189570178614578e-01 4.6656211957405658e-02  0.0000000000000000e+00 3.7028987671091113e-01 4.5628451043205370e-02  0.0000000000000000e+00 3.1884418268031045e-01 4.5279187572813129e-02  0.0000000000000000e+00 2.4020977709742511e-01 4.6211123106172231e-02  0.0000000000000000e+00 2.1048013108354754e-01 4.7314786374499623e-02  0.0000000000000000e+00 1.8516404855029389e-01 4.8806536796758386e-02  0.0000000000000000e+00 1.6372653815980101e-01 5.0612321229528516e-02  0.0000000000000000e+00 1.4536934215546662e-01 5.2743093412852840e-02  0.0000000000000000e+00 1.2961144088027005e-01 5.5173670002019934e-02  0.0000000000000000e+00 1.1606043194099307e-01 5.7904439059211103e-02  0.0000000000000000e+00 1.0437601337660024e-01 6.0916930042446998e-02  0.0000000000000000e+00 9.4232406194212207e-02 6.4214571937666956e-02  0.0000000000000000e+00 8.5425733415992633e-02 6.7778600883320370e-02  0.0000000000000000e+00 7.7780823224158385e-02 7.1618611584185088e-02  0.0000000000000000e+00 7.1153630882342292e-02 7.5668567037258369e-02  0.0000000000000000e+00 6.5250908672818381e-02 8.0040908280045994e-02  0.0000000000000000e+00 6.0063196072515333e-02 8.4663635203892681e-02  0.0000000000000000e+00 5.5564526929467187e-02 8.9458924544827068e-02  0.0000000000000000e+00 5.1518902770806681e-02 9.4586578665336998e-02  0.0000000000000000e+00 4.7969257659737884e-02 9.9911865246683843e-02  0.0000000000000000e+00 4.4890916728961297e-02 1.0532445595094250e-01  0.0000000000000000e+00 4.2130298421719663e-02 1.1102455331922600e-01  0.0000000000000000e+00 3.9662501887988096e-02 1.1686731624768634e-01  0.0000000000000000e+00 3.7467502882067023e-02 1.2289016762590460e-01  0.0000000000000000e+00 3.5521058391907660e-02 1.2905026529422739e-01  0.0000000000000000e+00 3.3771401920868332e-02 1.3537255139210225e-01  0.0000000000000000e+00 3.2192718159830470e-02 1.4188757691835280e-01  0.0000000000000000e+00 3.0799600117252302e-02 1.4842585067413072e-01  0.0000000000000000e+00 2.9536437755580191e-02 1.5512478122029025e-01  0.0000000000000000e+00 2.8392063454876545e-02 1.6195169209762189e-01  0.0000000000000000e+00 2.7389967602402053e-02 1.6870763214944451e-01  0.0000000000000000e+00 2.6475575571267458e-02 1.7563144872414665e-01  0.0000000000000000e+00 2.5645706994685283e-02 1.8262537396911557e-01  0.0000000000000000e+00 2.4903940940703150e-02 1.8964220464879109e-01  0.0000000000000000e+00 2.4233532935320101e-02 1.9670466882361648e-01  0.0000000000000000e+00 2.3629306028653704e-02 2.0379208183051170e-01  0.0000000000000000e+00 2.3082261295419848e-02 2.1093565491960006e-01  0.0000000000000000e+00 2.2580855512150715e-02 2.1817595344962568e-01  0.0000000000000000e+00 2.2144021079667162e-02 2.2521101850241432e-01  0.0000000000000000e+00 2.1755144956845586e-02 2.3218510958360983e-01  0.0000000000000000e+00 2.1390116686483034e-02 2.3939299179325432e-01  0.0000000000000000e+00 2.1073305477555229e-02 2.4640474287758343e-01  0.0000000000000000e+00 2.0797551492970044e-02 2.5324630832415440e-01  0.0000000000000000e+00 2.0547401099269003e-02 2.6011877952466278e-01  0.0000000000000000e+00 2.0326395664296264e-02 2.6689384685978845e-01  0.0000000000000000e+00 2.0129183826472902e-02 2.7370717876370976e-01  0.0000000000000000e+00 1.9960116510606068e-02 2.8022628034314051e-01  0.0000000000000000e+00 1.9811284239420808e-02 2.8678216011364122e-01  0.0000000000000000e+00 1.9684357230862919e-02 2.9311692906487330e-01  0.0000000000000000e+00 1.9572526053951659e-02 2.9940046073872645e-01  0.0000000000000000e+00 1.9476663676685782e-02 3.0565934863481464e-01  0.0000000000000000e+00 1.9403528663049469e-02 3.1154230015755080e-01  0.0000000000000000e+00 1.9342525712437730e-02 3.1717790769962373e-01  0.0000000000000000e+00 1.9291262793234638e-02 3.2283980687198077e-01  0.0000000000000000e+00 1.9253650533061922e-02 3.2817356194241953e-01  0.0000000000000000e+00 1.9228111146911427e-02 3.3320538083198492e-01  0.0000000000000000e+00 1.9208522579060919e-02 3.3810709507778919e-01  0.0000000000000000e+00 1.9197199597478912e-02 3.4282999031918376e-01  0.0000000000000000e+00 1.9192458063603649e-02 3.4720945574230888e-01  0.0000000000000000e+00 2.0301642143448536e-02 2.6802511495667436e-01  0.0000000000000000e+00 5.6610974106888479e-01 3.5374038609310809e-01  0.0000000000000000e+00 1.9209153037322856e-02 3.3857958141618616e-01  0.0000000000000000e+00 3.0381565280136352e-01 4.5399666325412820e-02  0.0000000000000000e+00 1.9200980678439731e-02 3.4621946566121670e-01  0.0000000000000000e+00 4.5539514506541423e-01 1.8012411327871311e-01  0.0000000000000000e+00 2.0533497459914639e-02 2.6049373474730070e-01  0.0000000000000000e+00 3.1512054444255352e-02 1.4496602468669945e-01  0.0000000000000000e+00 2.5634967511573476e-02 5.6950446918452913e-01  0.0000000000000000e+00 4.5939952374041315e-01 3.3818359853541191e-01  0.0000000000000000e+00 2.3500234680880350e-02 2.0556587768816925e-01  0.0000000000000000e+00 6.6220135877052666e-01 1.5771445921589661e-01  0.0000000000000000e+00 8.5000140354443046e-02 6.5688837835057509e-02  0.0000000000000000e+00 2.8090804314891100e-02 1.6403383838423483e-01  0.0000000000000000e+00 6.1824057401238275e-01 5.5045893324635768e-02  0.0000000000000000e+00 1.9220158239915183e-02 3.6133201200705334e-01  0.0000000000000000e+00 4.6058812947721774e-02 5.5579014067443200e-01  0.0000000000000000e+00 2.3310920871423231e-02 2.4412320495468687e-01  0.0000000000000000e+00 1.9296335582800691e-02 3.7493111515592559e-01  0.0000000000000000e+00 3.8849256056618930e-02 1.1909786152980233e-01  0.0000000000000000e+00 1.8216961022648329e-01 4.9344242474660294e-02  0.0000000000000000e+00 6.3593645878739488e-02 8.1494884529254075e-02  0.0000000000000000e+00 1.9313008469646561e-02 3.7704357849221692e-01  0.0000000000000000e+00 3.8612096013765092e-02 6.9312198066048536e-01  0.0000000000000000e+00 7.7038644697916173e-02 7.2236464414169532e-02  0.0000000000000000e+00 1.0167314061774574e-01 6.1842060470779663e-02  0.0000000000000000e+00 1.9279001504256502e-02 3.7213783389301958e-01  0.0000000000000000e+00 1.9486089593719117e-02 3.0575282989843483e-01  0.0000000000000000e+00 8.8294992126810257e-01 8.8253320616981351e-02  0.0000000000000000e+00 5.0461512205387071e-01 4.7471742227173941e-01  0.0000000000000000e+00 2.2913903996481362e-02 2.1325336879600465e-01  0.0000000000000000e+00 1.9440162663505546e-02 3.0860473633797408e-01  0.0000000000000000e+00 5.8043944174332361e-02 7.8123187634557789e-01  0.0000000000000000e+00 4.9687746335552299e-02 9.7417400324590883e-02  0.0000000000000000e+00 1.5767847733347923e-01 5.1341810845280347e-02  0.0000000000000000e+00 1.9232646391930914e-02 3.6366099808702490e-01  0.0000000000000000e+00 4.4059119729660451e-01 8.0346031646636307e-01  0.0000000000000000e+00 4.0448268670714244e-02 2.0062912502405741e-01  0.0000000000000000e+00 1.9265194684098610e-02 3.2786418250073590e-01  0.0000000000000000e+00 2.1350610717464174e-02 2.4044349444495089e-01  0.0000000000000000e+00 5.5422016192251400e-01 5.0836057011018405e-02  0.0000000000000000e+00 1.7889142350608137e-01 1.7674340029159333e-01  0.0000000000000000e+00 2.5933963646050443e-02 1.8019006967458551e-01  0.0000000000000000e+00 1.9251602289581161e-02 3.6747931111528137e-01  0.0000000000000000e+00 2.1509383474869408e-02 2.3699889649683659e-01  0.0000000000000000e+00 4.6178905325371590e-02 7.3410813118060347e-01  0.0000000000000000e+00 4.4925409824163159e-01 2.1375342112766788e-01  0.0000000000000000e+00 3.8606603943665461e-02 1.1983625281208327e-01  0.0000000000000000e+00 8.5388177870060833e-01 2.6488045329305226e-01  0.0000000000000000e+00 1.9808378887560346e-02 2.8738024161083020e-01  0.0000000000000000e+00 1.9292225372917780e-02 3.2321384651294105e-01  0.0000000000000000e+00 3.1787930355173410e-02 1.4384212903320723e-01  0.0000000000000000e+00 1.3266270944286213e-01 5.6119836152084657e-01  0.0000000000000000e+00 4.6803418336209782e-02 1.0195784722366537e-01  0.0000000000000000e+00 7.6993597765199751e-01 4.1839298152407917e-01  0.0000000000000000e+00 1.9774005443732295e-02 2.8846243615055567e-01  0.0000000000