<?xml version="1.0"?>
<VTKFile type="UnstructuredGrid"  version="0.1"  >
<UnstructuredGrid>
<Piece  NumberOfPoints="4940" NumberOfCells="9650">
<Points>
<DataArray  type="Float64"  NumberOfComponents="3"  format="ascii">500 250 0  0 250 0  250 500 0  250 0 0  256.8885856082646 499.9050767557906 0  263.7719401218049 499.6203791065173 0  270.6448364229772 499.1461232471188 0  277.5020553257866 498.4826693209355 0  284.3383895508592 497.6305211460281 0  291.1486476865662 496.5903258312597 0  297.9276581259182 495.3628732847843 0  304.6702729675493 493.9490956196674 0  311.3713719748657 492.3500664368026 0  318.0258664141369 490.5670000199653 0  324.6287029687753 488.6012504015818 0  331.1748675330201 486.4543103455647 0  337.6593890460416 484.1278102064655 0  344.0773432429536 481.6235166997244 0  350.4238564271474 478.9433315480048 0  356.694109139292 476.0892900492477 0  362.88333985546 473.0635595140469 0  368.9868485575419 469.8684376402048 0  375.0000003153078 466.5063507640667 0  380.9182288257928 462.9798520074548 0  386.7370398729688 459.2916193419558 0  392.4520147244077 455.444453565817 0  398.0588135356345 451.4412761437442 0  403.5531785622926 447.285127045646 0  408.9309374414144 442.9791624087773 0  414.1880064015299 438.5266521049243 0  419.3203932989752 433.9309773069245 0  424.324200661095 429.1956279150535 0  429.1956286596235 424.3241998957182 0  433.9309780058756 419.3203925397119 0  438.5266527445345 414.1880056671062 0  442.9791630130591 408.9309367076756 0  447.2851276060475 403.5531778422888 0  451.4412766621026 398.0588128303826 0  455.4444540361634 392.4520140460735 0  459.2916197786263 386.7370392045948 0  462.9798524073514 380.9182281752347 0  466.5063511234856 374.9999996927758 0  469.8684379657123 368.9868479560565 0  473.0635598144817 362.8833392617846 0  476.0892903190255 356.6941085676214 0  478.9433317963513 350.4238558609745 0  481.6235169154735 344.0773427117675 0  484.12781039012 337.6593885555221 0  486.4543105028062 331.1748670749914 0  488.601250531677 324.6287025528375 0  490.5670001317469 318.0258660188321 0  492.3500665291326 311.3713716102628 0  493.949095695951 304.6702726271575 0  495.3628733416623 297.9276578347343 0  496.5903258712341 291.1486474470129 0  497.6305211749058 284.3383893426084 0  498.4826693388848 277.502055163614 0  499.1461232580606 270.6448362909296 0  499.6203791109319 263.7719400417897 0  499.9050767571306 256.8885855596534 0  499.9050767559877 243.1114143988867 0  499.6203791069493 236.2280598860241 0  499.1461232485393 229.3551635941651 0  498.4826693235677 222.4979446979962 0  497.6305211491849 215.6616104719064 0  496.5903258357701 208.8513523404629 0  495.3628732906988 202.0723419043604 0  493.9490956264813 195.3297270628552 0  492.3500664487791 188.6286280724281 0  490.5670000344809 181.9741336371959 0  488.6012504175981 175.3712970824318 0  486.4543103623226 168.8251325157939 0  484.1278102222298 162.3406109960628 0  481.6235167152198 155.9226567951971 0  478.9433315621651 149.5761436051346 0  476.0892900516498 143.3058908657982 0  473.063559513628 137.1166601437124 0  469.8684376406648 131.0131514433083 0  466.5063507675389 124.9999996907064 0  462.9798520124137 119.0817711822745 0  459.2916193464549 113.2629601339176 0  455.4444535642773 107.5479852733717 0  451.4412761528674 101.9411864767781 0  447.2851270583545 96.44682145403524 0  442.9791624165781 91.06906256805769 0  438.5266521117469 85.81199360630404 0  433.9309773156125 80.67960671046254 0  429.1956279150353 75.67579933888632 0  424.3241998888952 70.80437133373906 0  419.3203925223282 66.06902197812161 0  414.1880056411937 61.47334723289828 0  408.9309366751728 57.0208369601728 0  403.5531778009394 52.71487236176898 0  398.058812796452 48.55872331295853 0  392.4520140187753 44.55554594490843 0  386.7370391799677 40.70838020528396 0  380.9182281475119 37.02014757560744 0  374.9999996718656 33.49364886444181 0  368.9868479340393 30.13156202237255 0  362.8833392380029 26.93644017348339 0  356.6941085456942 23.91070967062674 0  350.4238558420009 21.0566681953261 0  344.0773426899492 18.37648307566465 0  337.6593885328982 15.87218960140942 0  331.1748670549786 13.54568949032341 0  324.6287025315056 11.39874946165088 0  318.0258660010876 9.432999863235466 0  311.3713716017894 7.649933468721599 0  304.6702726190621 6.050904302234756 0  297.9276578269805 4.637126656823085 0  291.148647441857 3.409674127905504 0  284.3383893425031 2.369478825079682 0  277.502055159398 1.517330660648639 0  270.6448362875833 0.853876741662134 0  263.7719400401456 0.3796208889774277 0  256.8885855592052 0.09492324285704967 0  243.1114143979462 0.09492324403817065 0  236.2280598850882 0.3796208931023841 0  229.3551635938215 0.8538767514891958 0  222.4979446968584 1.517330676558146 0  215.6616104703111 2.369478851036291 0  208.8513523382973 3.409674164591252 0  202.0723419066374 4.637126708856528 0  195.3297270659513 6.050904372824903 0  188.628628074828 7.649933550613184 0  181.9741336377093 9.432999965373938 0  175.3712970793675 11.39874958336037 0  168.8251325057572 13.54568964112298 0  162.340610986655 15.87218978129263 0  155.9226567874317 18.37648328793418 0  149.576143602509 21.05666843898663 0  143.3058908718157 23.91070994551046 0  137.1166601505524 26.93644048291054 0  131.0131514451933 30.13156235831508 0  124.9999996848412 33.49364923584736 0  119.0817711715717 37.0201479941652 0  113.2629601211624 40.70838066187849 0  107.5479852622251 44.55554644345162 0  101.9411864693332 48.55872385260452 0  96.44682143286516 52.71487295812284 0  91.06906254351222 57.02083760363669 0  85.81199358272519 61.4733479087879 0  80.67960667988106 66.06902271253972 0  75.67579930062769 70.80437212218331 0  70.80437129287643 75.67580015310926 0  66.06902193673014 80.67960752263491 0  61.47334718684866 85.81199441168215 0  57.02083692524275 91.0690633672404 0  52.71487232786438 96.44682224262129 0  48.55872328070024 101.941187247437 0  44.55554591578033 107.5479860232332 0  40.7083801742321 113.2629608675606 0  37.02014754791168 119.0817718975441 0  33.49364883372994 125.000000381329 0  30.13156199866361 131.0131521097709 0  26.9364401549829 137.1166607985551 0  23.91070965524918 143.3058914868915 0  21.05666818346614 149.576144185037 0  18.37648306853811 155.9226573275967 0  15.8721895918909 162.3406114925245 0  13.54568948170046 168.8251329701392 0  11.39874945301878 175.3712974960928 0  9.432999857087736 181.9741340206533 0  7.649933466342702 188.6286284076045 0  6.050904301250966 195.3297273853278 0  4.637126656808988 202.0723421730917 0  3.409674127767772 208.8513525589684 0  2.369478824521138 215.6616106615248 0  1.517330660909465 222.4979448382452 0  0.8538767414496533 229.355163714981 0  0.3796208887135322 236.2280599646376 0  0.09492324266324204 243.1114144478261 0  0.0949232442452228 256.8885856095658 0  0.3796208935834784 263.7719401236316 0  0.8538767530323526 270.6448364248016 0  1.517330679476544 277.5020553295092 0  2.369478854618649 284.3383895555228 0  3.409674170191892 291.1486476952655 0  4.6371267162381 297.9276581311522 0  6.050904381420935 304.6702729724059 0  7.649933562385399 311.3713719716595 0  9.43299997979841 318.0258664133013 0  11.3987495994252 324.6287029719946 0  13.54568965885832 331.174867545904 0  15.87218979367188 337.6593890464085 0  18.37648329843151 344.0773432384132 0  21.05666844777872 350.423856417535 0  23.91070995156048 356.6941091410045 0  26.93644048988043 362.8833398632205 0  30.13156235982007 368.9868485575877 0  33.49364924138357 375.0000003247478 0  37.0201480006036 380.9182288389023 0  40.70838066758398 386.7370398875706 0  44.55554644477201 392.4520147396792 0  48.55872386086904 398.0588135419111 0  52.71487295981296 403.5531785693063 0  57.02083760525949 408.9309374584583 0  61.47334790862246 414.1880064170849 0  66.06902271205095 419.320393319588 0  70.80437211216579 424.3242006890749 0  75.67580013809859 429.195628692521 0  80.6796075127923 433.930978054209 0  85.81199439754931 438.5266528008431 0  91.06906334717917 442.9791630582355 0  96.44682221438322 447.2851276501571 0  101.9411872243843 451.441276702356 0  107.5479859945825 455.4444540643537 0  113.2629608446994 459.2916198108319 0  119.0817718768376 462.9798524393601 0  125.0000003647644 466.5063511567065 0  131.0131521012763 469.8684379967393 0  137.1166607840049 473.0635598376539 0  143.3058914748804 476.0892903390826 0  149.5761441732679 478.9433318113714 0  155.9226573130112 481.6235169255377 0  162.3406114779862 484.1278104026658 0  168.8251329570439 486.4543105138039 0  175.3712974805475 488.601250542119 0  181.9741340135204 490.5670001408953 0  188.6286284005059 492.3500665318597 0  195.3297273788229 493.9490956972913 0  202.0723421640089 495.3628733414168 0  208.8513525529672 496.5903258712308 0  215.6616106544547 497.6305211744985 0  222.4979448327038 498.4826693384772 0  229.3551637102845 499.1461232581612 0  236.2280599621369 499.6203791111485 0  243.1114144470173 499.9050767573145 0  155.2373389820306 474.8197567317462 0  25.36256300907667 153.9152755065208 0  432.3709625126712 412.6214396304305 0  6.013151705810699 246.637913163471 0  246.6379131630491 493.986848294322 0  338.6995838441862 22.68244767887072 0  477.3175523131281 338.6995838660569 0  493.9868482700757 246.6379131399102 0  246.6201155078769 6.218451882810491 0  417.6179310263282 72.7156044707053 0  102.2232990934413 445.0100869616822 0  63.66330858966404 92.20354579482142 0  391.3105220491464 50.73522820883105 0  72.79295043967942 418.0702734974704 0  448.290574428537 108.25674339002 0  402.4604651193511 440.7462829841712 0  97.55317348421397 59.11376320116034 0  136.7376477664901 33.58246472647134 0  363.3288394375288 465.6947312928271 0  44.0678766556007 381.0860953771871 0  469.6905266180034 142.3890690100806 0  22.68244791668644 338.6995843487432 0  338.699584349159 477.317552078365 0  173.389488083762 18.6681884918202 0  483.4809734778481 179.7121987795732 0  13.50237455842738 306.4709525540879 0  305.9825168523021 487.24416992
[...]
<PointData  Vectors="f_12"> 
<DataArray  type="Float64"  Name="f_12"  NumberOfComponents="3" format="ascii">0.0000000000000000e+00 2.6053504631276283e-02 6.3856471137837600e-02  0.0000000000000000e+00 2.1934161805523676e-02 8.5940545226574905e-02  0.0000000000000000e+00 3.0221089434401421e-02 5.0633150822740274e-02  0.0000000000000000e+00 1.7448463755967591e-02 1.4066164500372033e-01  0.0000000000000000e+00 3.0288961177437037e-02 5.0463434112034210e-02  0.0000000000000000e+00 3.0351225681453479e-02 5.0308793765402204e-02  0.0000000000000000e+00 3.0411278268189748e-02 5.0160546357865113e-02  0.0000000000000000e+00 3.0466212740597961e-02 5.0025688555569089e-02  0.0000000000000000e+00 3.0517179618984203e-02 4.9901269169316698e-02  0.0000000000000000e+00 3.0563830988021519e-02 4.9787900827816138e-02  0.0000000000000000e+00 3.0606120248934249e-02 4.9685590702584125e-02  0.0000000000000000e+00 3.0644230481124791e-02 4.9593756256661722e-02  0.0000000000000000e+00 3.0677739033446994e-02 4.9513282928633939e-02  0.0000000000000000e+00 3.0706293920802173e-02 4.9444934162796800e-02  0.0000000000000000e+00 3.0727539843313140e-02 4.9394227130109929e-02  0.0000000000000000e+00 3.0748689449429403e-02 4.9343791846117174e-02  0.0000000000000000e+00 3.0758192050995049e-02 4.9321216556664799e-02  0.0000000000000000e+00 3.0766435226968203e-02 4.9301604640581004e-02  0.0000000000000000e+00 3.0768374219432400e-02 4.9297003250918604e-02  0.0000000000000000e+00 3.0765187178861522e-02 4.9304577206520150e-02  0.0000000000000000e+00 3.0757141422462150e-02 4.9323662224403118e-02  0.0000000000000000e+00 3.0741131851093121e-02 4.9361805374309398e-02  0.0000000000000000e+00 3.0719051513830697e-02 4.9414502606916655e-02  0.0000000000000000e+00 3.0693637188236464e-02 4.9475223432521580e-02  0.0000000000000000e+00 3.0661911156103634e-02 4.9551260290733520e-02  0.0000000000000000e+00 3.0622608002553300e-02 4.9645839007406413e-02  0.0000000000000000e+00 3.0575401206011162e-02 4.9759917104471349e-02  0.0000000000000000e+00 3.0524907410066873e-02 4.9882481437265473e-02  0.0000000000000000e+00 3.0468402550581673e-02 5.0020380629694050e-02  0.0000000000000000e+00 3.0403056088831218e-02 5.0180848095335587e-02  0.0000000000000000e+00 3.0333626760027585e-02 5.0352491436448238e-02  0.0000000000000000e+00 3.0257383812830257e-02 5.0542377679836104e-02  0.0000000000000000e+00 3.0174991048056054e-02 5.0749242443365705e-02  0.0000000000000000e+00 3.0087943190426434e-02 5.0969626597495141e-02  0.0000000000000000e+00 2.9992661122715820e-02 5.1213127179366102e-02  0.0000000000000000e+00 2.9892473522664283e-02 5.1471791302819057e-02  0.0000000000000000e+00 2.9788727778872946e-02 5.1742380474444856e-02  0.0000000000000000e+00 2.9677855938854043e-02 5.2034823201515028e-02  0.0000000000000000e+00 2.9560153983037355e-02 5.2349086066203546e-02  0.0000000000000000e+00 2.9439295704087484e-02 5.2675768900645764e-02  0.0000000000000000e+00 2.9315573353049809e-02 5.3014526546972786e-02  0.0000000000000000e+00 2.9185976833414892e-02 5.3374225681881729e-02  0.0000000000000000e+00 2.9051059450195316e-02 5.3753897324618265e-02  0.0000000000000000e+00 2.8913489336292328e-02 5.4146867137701067e-02  0.0000000000000000e+00 2.8771733470438821e-02 5.4557937747208581e-02  0.0000000000000000e+00 2.8626618309582446e-02 5.4985326666785392e-02  0.0000000000000000e+00 2.8478634948850005e-02 5.5428139544552509e-02  0.0000000000000000e+00 2.8328247589222273e-02 5.5885740772258760e-02  0.0000000000000000e+00 2.8172838184900181e-02 5.6366704566149867e-02  0.0000000000000000e+00 2.8015534986540049e-02 5.6861911693822632e-02  0.0000000000000000e+00 2.7855403261833594e-02 5.7375349123712137e-02  0.0000000000000000e+00 2.7692362568417041e-02 5.7907362243687852e-02  0.0000000000000000e+00 2.7526457888737210e-02 5.8459212362595804e-02  0.0000000000000000e+00 2.7356373403883277e-02 5.9035781474020908e-02  0.0000000000000000e+00 2.7183201096646282e-02 5.9634421137714097e-02  0.0000000000000000e+00 2.7006912943863381e-02 6.0256479009240228e-02  0.0000000000000000e+00 2.6825835038140691e-02 6.0908539603491046e-02  0.0000000000000000e+00 2.6640644440135208e-02 6.1590316967554577e-02  0.0000000000000000e+00 2.6451142178348798e-02 6.2302315411426917e-02  0.0000000000000000e+00 2.6258850097683421e-02 6.3040574811564790e-02  0.0000000000000000e+00 2.5849149214873558e-02 6.4677817111423730e-02  0.0000000000000000e+00 2.5638392305497588e-02 6.5551719019076610e-02  0.0000000000000000e+00 2.5422731155169236e-02 6.6470625258561802e-02  0.0000000000000000e+00 2.5200144697937733e-02 6.7443673505090132e-02  0.0000000000000000e+00 2.4973826853772044e-02 6.8464690171624237e-02  0.0000000000000000e+00 2.4743191425971627e-02 6.9533663585495897e-02  0.0000000000000000e+00 2.4509765584068734e-02 7.0652404732481203e-02  0.0000000000000000e+00 2.4274249900475883e-02 7.1816523330234541e-02  0.0000000000000000e+00 2.4038544911437813e-02 7.3021094663436231e-02  0.0000000000000000e+00 2.3804179374576458e-02 7.4260247918982669e-02  0.0000000000000000e+00 2.3571218143047117e-02 7.5533809316805714e-02  0.0000000000000000e+00 2.3343330316734110e-02 7.6825138485987696e-02  0.0000000000000000e+00 2.3119342272794881e-02 7.8138028486164093e-02  0.0000000000000000e+00 2.2901106949284624e-02 7.9463003148825068e-02  0.0000000000000000e+00 2.2689071982145349e-02 8.0795372407086410e-02  0.0000000000000000e+00 2.2483928978963556e-02 8.2130006290799126e-02  0.0000000000000000e+00 2.2285327215023451e-02 8.3465940957163351e-02  0.0000000000000000e+00 2.2093112107764133e-02 8.4802982240996957e-02  0.0000000000000000e+00 2.1906615552662639e-02 8.6143424621822312e-02  0.0000000000000000e+00 2.1725445768607562e-02 8.7488258525057191e-02  0.0000000000000000e+00 2.1549036034102177e-02 8.8839260005387721e-02  0.0000000000000000e+00 2.1376665315600386e-02 9.0203073796262995e-02  0.0000000000000000e+00 2.1207149541511351e-02 9.1586396565323580e-02  0.0000000000000000e+00 2.1040438315539294e-02 9.2989622766446289e-02  0.0000000000000000e+00 2.0875371802381797e-02 9.4423203223286262e-02  0.0000000000000000e+00 2.0711592458887464e-02 9.5891072364783544e-02  0.0000000000000000e+00 2.0548656714566505e-02 9.7397984763283887e-02  0.0000000000000000e+00 2.0386439338501275e-02 9.8947820734166636e-02  0.0000000000000000e+00 2.0224753851259991e-02 1.0054233488214318e-01  0.0000000000000000e+00 2.0063703841025304e-02 1.0218519259407108e-01  0.0000000000000000e+00 1.9903641862243956e-02 1.0387315064631927e-01  0.0000000000000000e+00 1.9745021794397327e-02 1.0560380372996210e-01  0.0000000000000000e+00 1.9588398033804404e-02 1.0737439595025448e-01  0.0000000000000000e+00 1.9434541840096010e-02 1.0917502532293083e-01  0.0000000000000000e+00 1.9284872834707839e-02 1.1098951342295391e-01  0.0000000000000000e+00 1.9139196451726580e-02 1.1282044247450487e-01  0.0000000000000000e+00 1.8998413147029360e-02 1.1465390427401266e-01  0.0000000000000000e+00 1.8864218292398909e-02 1.1646400710397711e-01  0.0000000000000000e+00 1.8735734071571402e-02 1.1825811369793329e-01  0.0000000000000000e+00 1.8613230889897123e-02 1.2002930440189999e-01  0.0000000000000000e+00 1.8498544427156420e-02 1.2174133264339305e-01  0.0000000000000000e+00 1.8390938016994544e-02 1.2340476368865454e-01  0.0000000000000000e+00 1.8289820815174055e-02 1.2501208432608529e-01  0.0000000000000000e+00 1.8195177191200111e-02 1.2656474193843695e-01  0.0000000000000000e+00 1.8106962262065113e-02 1.2805258181966120e-01  0.0000000000000000e+00 1.8024833672187941e-02 1.2947639008111114e-01  0.0000000000000000e+00 1.7948536368808794e-02 1.3083321503790923e-01  0.0000000000000000e+00 1.7877839766393136e-02 1.3212120494778831e-01  0.0000000000000000e+00 1.7812189118575079e-02 1.3334569440648600e-01  0.0000000000000000e+00 1.7751239190920171e-02 1.3450659778100676e-01  0.0000000000000000e+00 1.7695013089851223e-02 1.3559938917007036e-01  0.0000000000000000e+00 1.7643579116710561e-02 1.3661870562425182e-01  0.0000000000000000e+00 1.7596636304266076e-02 1.3756538791010001e-01  0.0000000000000000e+00 1.7553551140201275e-02 1.3844884326483628e-01  0.0000000000000000e+00 1.7514646237954568e-02 1.3925806720334194e-01  0.0000000000000000e+00 1.7479536680835062e-02 1.3999891248097346e-01  0.0000000000000000e+00 1.7422263698324676e-02 1.4122928655740938e-01  0.0000000000000000e+00 1.7395492213010847e-02 1.4180976813705165e-01  0.0000000000000000e+00 1.7377039108819662e-02 1.4221663227222905e-01  0.0000000000000000e+00 1.7360627402985575e-02 1.4258020069415497e-01  0.0000000000000000e+00 1.7347560003050221e-02 1.4287094318511442e-01  0.0000000000000000e+00 1.7338442002144783e-02 1.4307501287750163e-01  0.0000000000000000e+00 1.7333000858488896e-02 1.4319694050247156e-01  0.0000000000000000e+00 1.7330884178826340e-02 1.4324447811303406e-01  0.0000000000000000e+00 1.7332415501442329e-02 1.4321008956507084e-01  0.0000000000000000e+00 1.7335989751355460e-02 1.4312979133899412e-01  0.0000000000000000e+00 1.7345381102353650e-02 1.4291967930442009e-01  0.0000000000000000e+00 1.7357597182605395e-02 1.4264742338117911e-01  0.0000000000000000e+00 1.7373283799614277e-02 1.4230004770009380e-01  0.0000000000000000e+00 1.7391775726407276e-02 1.4189256384925122e-01  0.0000000000000000e+00 1.7414116568948160e-02 1.4140431915234855e-01  0.0000000000000000e+00 1.7440612449965462e-02 1.4083080543053592e-01  0.0000000000000000e+00 1.7470281823694228e-02 1.4019543433555082e-01  0.0000000000000000e+00 1.7503405886186395e-02 1.3949403018772769e-01  0.0000000000000000e+00 1.7540044469294209e-02 1.3872815738661382e-01  0.0000000000000000e+00 1.7580379464103887e-02 1.3789681175572299e-01  0.0000000000000000e+00 1.7624821359837867e-02 1.3699523798890312e-01  0.0000000000000000e+00 1.7673241724328451e-02 1.3602891157757174e-01  0.0000000000000000e+00 1.7725402141796711e-02 1.3500600670682472e-01  0.0000000000000000e+00 1.7781607540980415e-02 1.3392466491995378e-01  0.0000000000000000e+00 1.7842191635780994e-02 1.3278216174422594e-01  0.0000000000000000e+00 1.7907340544293389e-02 1.3157964404369538e-01  0.0000000000000000e+00 1.7977287365330857e-02 1.3031716319989201e-01  0.0000000000000000e+00 1.8052226366747477e-02 1.2899652408616230e-01  0.0000000000000000e+00 1.8132444414441652e-02 1.2761767362927137e-01  0.0000000000000000e+00 1.8218112233573960e-02 1.2618328243886123e-01  0.0000000000000000e+00 1.8309436033770801e-02 1.2469536145971911e-01  0.0000000000000000e+00 1.8406433336488899e-02 1.2316003924273027e-01  0.0000000000000000e+00 1.8509166743758725e-02 1.2158017198235140e-01  0.0000000000000000e+00 1.8618119420758698e-02 1.1995603687364377e-01  0.0000000000000000e+00 1.8733072828632936e-02 1.1829459327602594e-01  0.0000000000000000e+00 1.8853764935410185e-02 1.1660597282780071e-01  0.0000000000000000e+00 1.8979719720555548e-02 1.1490028057245717e-01  0.0000000000000000e+00 1.9110474686936951e-02 1.1318749015134301e-01  0.0000000000000000e+00 1.9245500541366339e-02 1.1147591316695966e-01  0.0000000000000000e+00 1.9384152616141979e-02 1.0977662492984491e-01  0.0000000000000000e+00 1.9526664046434966e-02 1.0808709249236138e-01  0.0000000000000000e+00 1.9671071618672945e-02 1.0642968366729620e-01  0.0000000000000000e+00 1.9816862293277143e-02 1.0481128149180398e-01  0.0000000000000000e+00 1.9964077513289713e-02 1.0322672324629767e-01  0.0000000000000000e+00 2.0112065834977929e-02 1.0168414615922886e-01  0.0000000000000000e+00 2.0260410451079926e-02 1.0018435563102909e-01  0.0000000000000000e+00 2.0408281990655058e-02 9.8733607155159692e-02  0.0000000000000000e+00 2.0556653958965259e-02 9.7320818129653902e-02  0.0000000000000000e+00 2.0705123908521729e-02 9.5948906924561761e-02  0.0000000000000000e+00 2.0853344487332493e-02 9.4614829790999347e-02  0.0000000000000000e+00 2.1002539738711808e-02 9.3313680988253558e-02  0.0000000000000000e+00 2.1152696556964071e-02 9.2037609692586231e-02  0.0000000000000000e+00 2.1304213073237200e-02 9.0787216088945258e-02  0.0000000000000000e+00 2.1457529147550405e-02 8.9556329873564489e-02  0.0000000000000000e+00 2.1613371573012189e-02 8.8340179886782444e-02  0.0000000000000000e+00 2.1771890283762963e-02 8.7137078022952702e-02  0.0000000000000000e+00 2.2100462811064533e-02 8.4749038524529710e-02  0.0000000000000000e+00 2.2270732346579940e-02 8.3563541335505406e-02  0.0000000000000000e+00 2.2446088313118836e-02 8.2378945908815157e-02  0.0000000000000000e+00 2.2625976379005940e-02 8.1198798659822588e-02  0.0000000000000000e+00 2.2810689148377406e-02 8.0023309771317219e-02  0.0000000000000000e+00 2.3000118814532320e-02 7.8853689147498268e-02  0.0000000000000000e+00 2.3193885426326201e-02 7.7693513397886188e-02  0.0000000000000000e+00 2.3391382584136724e-02 7.6546403942510402e-02  0.0000000000000000e+00 2.3592014756690805e-02 7.5416308823433129e-02  0.0000000000000000e+00 2.3794854891210054e-02 7.4307552648200589e-02  0.0000000000000000e+00 2.3999010558508709e-02 7.3225239807407680e-02  0.0000000000000000e+00 2.4203001697689880e-02 7.2174198583129165e-02  0.0000000000000000e+00 2.4406654652743789e-02 7.1155178522279441e-02  0.0000000000000000e+00 2.4608969979255720e-02 7.0170769396513497e-02  0.0000000000000000e+00 2.4807935213294576e-02 6.9228357198384285e-02  0.0000000000000000e+00 2.5005124941154245e-02 6.8319128754294620e-02  0.0000000000000000e+00 2.5198611159643586e-02 6.7449407719881824e-02  0.0000000000000000e+00 2.5386363065312650e-02 6.6625236109581626e-02  0.0000000000000000e+00 2.5570359142581389e-02 6.5837615532723007e-02  0.0000000000000000e+00 2.5749626845921525e-02 6.5086288829868805e-02  0.0000000000000000e+00 2.5924468262739881e-02 6.4370054585865380e-02  0.0000000000000000e+00 2.6094563078451018e-02 6.3687679362278163e-02  0.0000000000000000e+00 2.6260434059384049e-02 6.3035517812746231e-02  0.0000000000000000e+00 2.6422260797778572e-02 6.2411844573578505e-02  0.0000000000000000e+00 2.6579360665573551e-02 6.1817659580250928e-02  0.0000000000000000e+00 2.6732728334395630e-02 6.1248233121950012e-02  0.0000000000000000e+00 2.6883190916865748e-02 6.0699419498576920e-02  0.0000000000000000e+00 2.7029103126739808e-02 6.0176296344239190e-02  0.0000000000000000e+00 2.7172773341379543e-02 5.9669976906987512e-02  0.0000000000000000e+00 2.7313407034059312e-02 5.9182241778855588e-02  0.0000000000000000e+00 2.7451109963248458e-02 5.8712322390823121e-02  0.0000000000000000e+00 2.7586278377709595e-02 5.8258169132960266e-02  0.0000000000000000e+00 2.7718997996533094e-02 5.7818983856095407e-02  0.0000000000000000e+00 2.7849732782291962e-02 5.7392789560596257e-02  0.0000000000000000e+00 2.7978991323524081e-02 5.6977545184663969e-02  0.0000000000000000e+00 2.8104903943378733e-02 5.6578745565699369e-02  0.0000000000000000e+00 2.8228406765949524e-02 5.6193034015935887e-02  0.0000000000000000e+00 2.8351818665202397e-02 5.5812864509067674e-02  0.0000000000000000e+00 2.8472245522622980e-02 5.5446832380444219e-02  0.0000000000000000e+00 2.8589949830767240e-02 5.5093799483079103e-02  0.0000000000000000e+00 2.8706258635078006e-02 5.4749386116358684e-02  0.0000000000000000e+00 2.8820239810396994e-02 5.4415998397224628e-02  0.0000000000000000e+00 2.8932769624881522e-02 5.4091014943403175e-02  0.0000000000000000e+00 2.9041736886684544e-02 5.3779878701287635e-02  0.0000000000000000e+00 2.9149393746550383e-02 5.3476216542741761e-02  0.0000000000000000e+00 2.9254227004469738e-02 5.3183767857210934e-02  0.0000000000000000e+00 2.9356929368348526e-02 5.2900371115496829e-02  0.0000000000000000e+00 2.9457736697525067e-02 5.2625187394727074e-02  0.0000000000000000e+00 2.9554599856787857e-02 5.2363680363473900e-02  0.0000000000000000e+00 2.9648327377044773e-02 5.2113030739065612e-02  0.0000000000000000e+00 2.9740635271079795e-02 5.1868560852452977e-02  0.0000000000000000e+00 2.9828980320724181e-02 5.1636782844940401e-02  0.0000000000000000e+00 2.9913631591686026e-02 5.1416742391989838e-02  0.0000000000000000e+00 2.9995420027985983e-02 5.1205875397932074e-02  0.0000000000000000e+00 3.0074149717086215e-02 5.1004595916247286e-02  0.0000000000000000e+00 3.0148529012496122e-02 5.0815887653844802e-02  0.0000000000000000e+00 2.8863953372874174e-02 5.4289414662810551e-02  0.0000000000000000e+00 1.9723075674929234e-02 1.0584711341246157e-01  0.0000000000000000e+00 3.0016226223576935e-02 5.1152761708515002e-02  0.0000000000000000e+00 2.1851668716113458e-02 8.6545050729259360e-02  0.0000000000000000e+00 3.0164950060571044e-02 5.0774520477093556e-02  0.0000000000000000e+00 1.8248820598492022e-02 1.2568054376149912e-01  0.0000000000000000e+00 2.8388036603825759e-02 5.5703133184290952e-02  0.0000000000000000e+00 2.5943664117488465e-02 6.4292889003642953e-02  0.0000000000000000e+00 1.7441628783206979e-02 1.4080922992008299e-01  0.0000000000000000e+00 2.0144819146168919e-02 1.0135173764459533e-01  0.0000000000000000e+00 2.7770415970021712e-02 5.7650754993170232e-02  0.0000000000000000e+00 1.8363768604322910e-02 1.2383066985090697e-01  0.0000000000000000e+00 1.9347003241251919e-02 1.1022933867051289e-01  0.0000000000000000e+00 2.6951725492043027e-02 6.0452753505587833e-02  0.0000000000000000e+00 2.1288881160641451e-02 9.0914664203534667e-02  0.0000000000000000e+00 3.0479073824095048e-02 4.9994409311663920e-02  0.0000000000000000e+00 1.7814789075148749e-02 1.3329657776253526e-01  0.0000000000000000e+00 1.7492857831706912e-02 1.3971698470417632e-01  0.0000000000000000e+00 3.0725530665867969e-02 4.9399086235558394e-02  0.0000000000000000e+00 2.5840729000317558e-02 6.4711542174152148e-02  0.0000000000000000e+00 2.2376800145514006e-02 8.2845597253117992e-02  0.0000000000000000e+00 2.4500979742948559e-02 7.0692608687580996e-02  0.0000000000000000e+00 3.0741787150572422e-02 4.9360376278537628e-02  0.0000000000000000e+00 1.7359814043261403e-02 1.4259850952224842e-01  0.0000000000000000e+00 2.3656651461123349e-02 7.5062145897269741e-02  0.0000000000000000e+00 2.3485763762398745e-02 7.6011083340058391e-02  0.0000000000000000e+00 3.0634843516983330e-02 4.9616493311647622e-02  0.0000000000000000e+00 2.9490578675894236e-02 5.2536295409627086e-02  0.0000000000000000e+00 2.0632403385484971e-02 9.6616692690906766e-02  0.0000000000000000e+00 1.7788376898983868e-02 1.3379735894464326e-01  0.0000000000000000e+00 2.7428981231294242e-02 5.8788356447209457e-02  0.0000000000000000e+00 2.9383478755337193e-02 5.2828235242823755e-02  0.0000000000000000e+00 1.7340891208455562e-02 1.4302060398076391e-01  0.0000000000000000e+00 2.4603088315827765e-02 7.0201358717086867e-02  0.0000000000000000e+00 2.2714673480732979e-02 8.0630381993605199e-02  0.0000000000000000e+00 3.0471174011882055e-02 5.0013707641934822e-02  0.0000000000000000e+00 1.8808621398760876e-02 1.1723559958998923e-01  0.0000000000000000e+00 1.9049735118684848e-02 1.1397704719065993e-01  0.0000000000000000e+00 2.9854874067306528e-02 5.1569401491109772e-02  0.0000000000000000e+00 2.8395908602491467e-02 5.5678244658834385e-02  0.0000000000000000e+00 2.1244280243033153e-02 9.1277989788643280e-02  0.0000000000000000e+00 1.7585191691149145e-02 1.3779944073148651e-01  0.0000000000000000e+00 2.6742781009246496e-02 6.1212832645723428e-02  0.0000000000000000e+00 3.0611971269595903e-02 4.9671667447982654e-02  0.0000000000000000e+00 2.7920538290494089e-02 5.7165509864008826e-02  0.0000000000000000e+00 1.7373016558980894e-02 1.4230653953561523e-01  0.0000000000000000e+00 1.7993888056071737e-02 1.3002324393759601e-01  0.0000000000000000e+00 2.5299056490610330e-02 6.7007712901526184e-02  0.0000000000000000e+00 2.0624303825579112e-02 9.6693166795320945e-02  0.0000000000000000e+00 2.9188467711096049e-02 5.3366990931717664e-02  0.0000000000000000e+00 2.9708642552482838e-02 5.1953330809577987e-02  0.0000000000000000e+00 2.6499284212315840e-02 6.2119214885225114e-02  0.0000000000000000e+00 1.7655424446476050e-02 1.3638329216399983e-01  0.0000000000000000e+00 2.5297849228010136e-02 6.7011478852864487e-02  0.0000000000000000e+00 2.0188772196640968e-02 1.0090420714697740e-01  0.0000000000000000e+00 2.8965748459666589e-02 5.3997005165415175e-02  0.0000000000