<?xml version="1.0"?>
<VTKFile type="UnstructuredGrid"  version="0.1"  >
<UnstructuredGrid>
<Piece  NumberOfPoints="4940" NumberOfCells="9650">
<Points>
<DataArray  type="Float64"  NumberOfComponents="3"  format="ascii">500 250 0  0 250 0  250 500 0  250 0 0  256.8885856082646 499.9050767557906 0  263.7719401218049 499.6203791065173 0  270.6448364229772 499.1461232471188 0  277.5020553257866 498.4826693209355 0  284.3383895508592 497.6305211460281 0  291.1486476865662 496.5903258312597 0  297.9276581259182 495.3628732847843 0  304.6702729675493 493.9490956196674 0  311.3713719748657 492.3500664368026 0  318.0258664141369 490.5670000199653 0  324.6287029687753 488.6012504015818 0  331.1748675330201 486.4543103455647 0  337.6593890460416 484.1278102064655 0  344.0773432429536 481.6235166997244 0  350.4238564271474 478.9433315480048 0  356.694109139292 476.0892900492477 0  362.88333985546 473.0635595140469 0  368.9868485575419 469.8684376402048 0  375.0000003153078 466.5063507640667 0  380.9182288257928 462.9798520074548 0  386.7370398729688 459.2916193419558 0  392.4520147244077 455.444453565817 0  398.0588135356345 451.4412761437442 0  403.5531785622926 447.285127045646 0  408.9309374414144 442.9791624087773 0  414.1880064015299 438.5266521049243 0  419.3203932989752 433.9309773069245 0  424.324200661095 429.1956279150535 0  429.1956286596235 424.3241998957182 0  433.9309780058756 419.3203925397119 0  438.5266527445345 414.1880056671062 0  442.9791630130591 408.9309367076756 0  447.2851276060475 403.5531778422888 0  451.4412766621026 398.0588128303826 0  455.4444540361634 392.4520140460735 0  459.2916197786263 386.7370392045948 0  462.9798524073514 380.9182281752347 0  466.5063511234856 374.9999996927758 0  469.8684379657123 368.9868479560565 0  473.0635598144817 362.8833392617846 0  476.0892903190255 356.6941085676214 0  478.9433317963513 350.4238558609745 0  481.6235169154735 344.0773427117675 0  484.12781039012 337.6593885555221 0  486.4543105028062 331.1748670749914 0  488.601250531677 324.6287025528375 0  490.5670001317469 318.0258660188321 0  492.3500665291326 311.3713716102628 0  493.949095695951 304.6702726271575 0  495.3628733416623 297.9276578347343 0  496.5903258712341 291.1486474470129 0  497.6305211749058 284.3383893426084 0  498.4826693388848 277.502055163614 0  499.1461232580606 270.6448362909296 0  499.6203791109319 263.7719400417897 0  499.9050767571306 256.8885855596534 0  499.9050767559877 243.1114143988867 0  499.6203791069493 236.2280598860241 0  499.1461232485393 229.3551635941651 0  498.4826693235677 222.4979446979962 0  497.6305211491849 215.6616104719064 0  496.5903258357701 208.8513523404629 0  495.3628732906988 202.0723419043604 0  493.9490956264813 195.3297270628552 0  492.3500664487791 188.6286280724281 0  490.5670000344809 181.9741336371959 0  488.6012504175981 175.3712970824318 0  486.4543103623226 168.8251325157939 0  484.1278102222298 162.3406109960628 0  481.6235167152198 155.9226567951971 0  478.9433315621651 149.5761436051346 0  476.0892900516498 143.3058908657982 0  473.063559513628 137.1166601437124 0  469.8684376406648 131.0131514433083 0  466.5063507675389 124.9999996907064 0  462.9798520124137 119.0817711822745 0  459.2916193464549 113.2629601339176 0  455.4444535642773 107.5479852733717 0  451.4412761528674 101.9411864767781 0  447.2851270583545 96.44682145403524 0  442.9791624165781 91.06906256805769 0  438.5266521117469 85.81199360630404 0  433.9309773156125 80.67960671046254 0  429.1956279150353 75.67579933888632 0  424.3241998888952 70.80437133373906 0  419.3203925223282 66.06902197812161 0  414.1880056411937 61.47334723289828 0  408.9309366751728 57.0208369601728 0  403.5531778009394 52.71487236176898 0  398.058812796452 48.55872331295853 0  392.4520140187753 44.55554594490843 0  386.7370391799677 40.70838020528396 0  380.9182281475119 37.02014757560744 0  374.9999996718656 33.49364886444181 0  368.9868479340393 30.13156202237255 0  362.8833392380029 26.93644017348339 0  356.6941085456942 23.91070967062674 0  350.4238558420009 21.0566681953261 0  344.0773426899492 18.37648307566465 0  337.6593885328982 15.87218960140942 0  331.1748670549786 13.54568949032341 0  324.6287025315056 11.39874946165088 0  318.0258660010876 9.432999863235466 0  311.3713716017894 7.649933468721599 0  304.6702726190621 6.050904302234756 0  297.9276578269805 4.637126656823085 0  291.148647441857 3.409674127905504 0  284.3383893425031 2.369478825079682 0  277.502055159398 1.517330660648639 0  270.6448362875833 0.853876741662134 0  263.7719400401456 0.3796208889774277 0  256.8885855592052 0.09492324285704967 0  243.1114143979462 0.09492324403817065 0  236.2280598850882 0.3796208931023841 0  229.3551635938215 0.8538767514891958 0  222.4979446968584 1.517330676558146 0  215.6616104703111 2.369478851036291 0  208.8513523382973 3.409674164591252 0  202.0723419066374 4.637126708856528 0  195.3297270659513 6.050904372824903 0  188.628628074828 7.649933550613184 0  181.9741336377093 9.432999965373938 0  175.3712970793675 11.39874958336037 0  168.8251325057572 13.54568964112298 0  162.340610986655 15.87218978129263 0  155.9226567874317 18.37648328793418 0  149.576143602509 21.05666843898663 0  143.3058908718157 23.91070994551046 0  137.1166601505524 26.93644048291054 0  131.0131514451933 30.13156235831508 0  124.9999996848412 33.49364923584736 0  119.0817711715717 37.0201479941652 0  113.2629601211624 40.70838066187849 0  107.5479852622251 44.55554644345162 0  101.9411864693332 48.55872385260452 0  96.44682143286516 52.71487295812284 0  91.06906254351222 57.02083760363669 0  85.81199358272519 61.4733479087879 0  80.67960667988106 66.06902271253972 0  75.67579930062769 70.80437212218331 0  70.80437129287643 75.67580015310926 0  66.06902193673014 80.67960752263491 0  61.47334718684866 85.81199441168215 0  57.02083692524275 91.0690633672404 0  52.71487232786438 96.44682224262129 0  48.55872328070024 101.941187247437 0  44.55554591578033 107.5479860232332 0  40.7083801742321 113.2629608675606 0  37.02014754791168 119.0817718975441 0  33.49364883372994 125.000000381329 0  30.13156199866361 131.0131521097709 0  26.9364401549829 137.1166607985551 0  23.91070965524918 143.3058914868915 0  21.05666818346614 149.576144185037 0  18.37648306853811 155.9226573275967 0  15.8721895918909 162.3406114925245 0  13.54568948170046 168.8251329701392 0  11.39874945301878 175.3712974960928 0  9.432999857087736 181.9741340206533 0  7.649933466342702 188.6286284076045 0  6.050904301250966 195.3297273853278 0  4.637126656808988 202.0723421730917 0  3.409674127767772 208.8513525589684 0  2.369478824521138 215.6616106615248 0  1.517330660909465 222.4979448382452 0  0.8538767414496533 229.355163714981 0  0.3796208887135322 236.2280599646376 0  0.09492324266324204 243.1114144478261 0  0.0949232442452228 256.8885856095658 0  0.3796208935834784 263.7719401236316 0  0.8538767530323526 270.6448364248016 0  1.517330679476544 277.5020553295092 0  2.369478854618649 284.3383895555228 0  3.409674170191892 291.1486476952655 0  4.6371267162381 297.9276581311522 0  6.050904381420935 304.6702729724059 0  7.649933562385399 311.3713719716595 0  9.43299997979841 318.0258664133013 0  11.3987495994252 324.6287029719946 0  13.54568965885832 331.174867545904 0  15.87218979367188 337.6593890464085 0  18.37648329843151 344.0773432384132 0  21.05666844777872 350.423856417535 0  23.91070995156048 356.6941091410045 0  26.93644048988043 362.8833398632205 0  30.13156235982007 368.9868485575877 0  33.49364924138357 375.0000003247478 0  37.0201480006036 380.9182288389023 0  40.70838066758398 386.7370398875706 0  44.55554644477201 392.4520147396792 0  48.55872386086904 398.0588135419111 0  52.71487295981296 403.5531785693063 0  57.02083760525949 408.9309374584583 0  61.47334790862246 414.1880064170849 0  66.06902271205095 419.320393319588 0  70.80437211216579 424.3242006890749 0  75.67580013809859 429.195628692521 0  80.6796075127923 433.930978054209 0  85.81199439754931 438.5266528008431 0  91.06906334717917 442.9791630582355 0  96.44682221438322 447.2851276501571 0  101.9411872243843 451.441276702356 0  107.5479859945825 455.4444540643537 0  113.2629608446994 459.2916198108319 0  119.0817718768376 462.9798524393601 0  125.0000003647644 466.5063511567065 0  131.0131521012763 469.8684379967393 0  137.1166607840049 473.0635598376539 0  143.3058914748804 476.0892903390826 0  149.5761441732679 478.9433318113714 0  155.9226573130112 481.6235169255377 0  162.3406114779862 484.1278104026658 0  168.8251329570439 486.4543105138039 0  175.3712974805475 488.601250542119 0  181.9741340135204 490.5670001408953 0  188.6286284005059 492.3500665318597 0  195.3297273788229 493.9490956972913 0  202.0723421640089 495.3628733414168 0  208.8513525529672 496.5903258712308 0  215.6616106544547 497.6305211744985 0  222.4979448327038 498.4826693384772 0  229.3551637102845 499.1461232581612 0  236.2280599621369 499.6203791111485 0  243.1114144470173 499.9050767573145 0  155.2373389820306 474.8197567317462 0  25.36256300907667 153.9152755065208 0  432.3709625126712 412.6214396304305 0  6.013151705810699 246.637913163471 0  246.6379131630491 493.986848294322 0  338.6995838441862 22.68244767887072 0  477.3175523131281 338.6995838660569 0  493.9868482700757 246.6379131399102 0  246.6201155078769 6.218451882810491 0  417.6179310263282 72.7156044707053 0  102.2232990934413 445.0100869616822 0  63.66330858966404 92.20354579482142 0  391.3105220491464 50.73522820883105 0  72.79295043967942 418.0702734974704 0  448.290574428537 108.25674339002 0  402.4604651193511 440.7462829841712 0  97.55317348421397 59.11376320116034 0  136.7376477664901 33.58246472647134 0  363.3288394375288 465.6947312928271 0  44.0678766556007 381.0860953771871 0  469.6905266180034 142.3890690100806 0  22.68244791668644 338.6995843487432 0  338.699584349159 477.317552078365 0  173.389488083762 18.6681884918202 0  483.4809734778481 179.7121987795732 0  13.50237455842738 306.4709525540879 0  305.9825168523021 487.24416992
[...]
<PointData  Vectors="f_12"> 
<DataArray  type="Float64"  Name="f_12"  NumberOfComponents="3" format="ascii">0.0000000000000000e+00 1.6667704719777968e-01 8.4241656593504188e-01  0.0000000000000000e+00 1.6635651406716379e-01 8.5988130923015460e-01  0.0000000000000000e+00 1.8257409013136455e-01 8.3078295382670875e-01  0.0000000000000000e+00 1.7021910038624308e-01 8.9067690698478230e-01  0.0000000000000000e+00 1.8262504391691631e-01 8.3059589929008248e-01  0.0000000000000000e+00 1.8265407608809681e-01 8.3042691450082617e-01  0.0000000000000000e+00 1.8266471016874716e-01 8.3025771497208667e-01  0.0000000000000000e+00 1.8265482566407704e-01 8.3009881657362627e-01  0.0000000000000000e+00 1.8262423669813455e-01 8.2995126890962434e-01  0.0000000000000000e+00 1.8257377799681035e-01 8.2981141513081358e-01  0.0000000000000000e+00 1.8250328090306389e-01 8.2968067341660945e-01  0.0000000000000000e+00 1.8241283384472695e-01 8.2955950472644790e-01  0.0000000000000000e+00 1.8230285329923915e-01 8.2944686929589795e-01  0.0000000000000000e+00 1.8217312040152392e-01 8.2934580048930162e-01  0.0000000000000000e+00 1.8202264707258245e-01 8.2926531198350761e-01  0.0000000000000000e+00 1.8185636128409649e-01 8.2917623437530985e-01  0.0000000000000000e+00 1.8166842262552052e-01 8.2911948092290921e-01  0.0000000000000000e+00 1.8146537584500891e-01 8.2905416837203205e-01  0.0000000000000000e+00 1.8124355742375248e-01 8.2900980365056376e-01  0.0000000000000000e+00 1.8100519611959023e-01 8.2897449962047143e-01  0.0000000000000000e+00 1.8075061225153372e-01 8.2894927795885442e-01  0.0000000000000000e+00 1.8047947012696430e-01 8.2894845807315087e-01  0.0000000000000000e+00 1.8019357952317364e-01 8.2895831068914372e-01  0.0000000000000000e+00 1.7989433605137223e-01 8.2896452883509741e-01  0.0000000000000000e+00 1.7958098421546978e-01 8.2898998193126583e-01  0.0000000000000000e+00 1.7925466616145005e-01 8.2903574096580490e-01  0.0000000000000000e+00 1.7891653977681082e-01 8.2910921006148053e-01  0.0000000000000000e+00 1.7856711425523392e-01 8.2917797574260632e-01  0.0000000000000000e+00 1.7820713765683668e-01 8.2925911131998808e-01  0.0000000000000000e+00 1.7783867718824597e-01 8.2937472149917202e-01  0.0000000000000000e+00 1.7746055955891354e-01 8.2948982242350700e-01  0.0000000000000000e+00 1.7707529783665391e-01 8.2962660457831361e-01  0.0000000000000000e+00 1.7668423559299978e-01 8.2978932902668312e-01  0.0000000000000000e+00 1.7628526661396648e-01 8.2995147343198683e-01  0.0000000000000000e+00 1.7588359124205244e-01 8.3014652149950563e-01  0.0000000000000000e+00 1.7547797121306538e-01 8.3035888951854253e-01  0.0000000000000000e+00 1.7506607988275039e-01 8.3057152148531455e-01  0.0000000000000000e+00 1.7465429952703404e-01 8.3081529443947288e-01  0.0000000000000000e+00 1.7424457755869022e-01 8.3109182285659855e-01  0.0000000000000000e+00 1.7383255115304699e-01 8.3137772827220091e-01  0.0000000000000000e+00 1.7341774644604638e-01 8.3167016916496417e-01  0.0000000000000000e+00 1.7300795727998639e-01 8.3199563536396204e-01  0.0000000000000000e+00 1.7260276536377353e-01 8.3234815024338793e-01  0.0000000000000000e+00 1.7219890799724916e-01 8.3271414194008619e-01  0.0000000000000000e+00 1.7180067088712991e-01 8.3310494962461468e-01  0.0000000000000000e+00 1.7140814604937188e-01 8.3351829269244615e-01  0.0000000000000000e+00 1.7102118573514205e-01 8.3395164893667495e-01  0.0000000000000000e+00 1.7063908144490991e-01 8.3440200902606132e-01  0.0000000000000000e+00 1.7026894274603366e-01 8.3488469382470121e-01  0.0000000000000000e+00 1.6990642731485781e-01 8.3538759285110420e-01  0.0000000000000000e+00 1.6955288185280654e-01 8.3591197616478197e-01  0.0000000000000000e+00 1.6920990180980150e-01 8.3646036386837552e-01  0.0000000000000000e+00 1.6887412611133648e-01 8.3702449047721050e-01  0.0000000000000000e+00 1.6855538896676733e-01 8.3762257836991316e-01  0.0000000000000000e+00 1.6824665479386453e-01 8.3823953336941426e-01  0.0000000000000000e+00 1.6794778863748780e-01 8.3887460287697524e-01  0.0000000000000000e+00 1.6766398096564036e-01 8.3953591498185587e-01  0.0000000000000000e+00 1.6739417574694615e-01 8.4022048181140607e-01  0.0000000000000000e+00 1.6713801872214620e-01 8.4092676329884852e-01  0.0000000000000000e+00 1.6688780410971801e-01 8.4164241699648812e-01  0.0000000000000000e+00 1.6645586567887968e-01 8.4317488254793349e-01  0.0000000000000000e+00 1.6625904558186269e-01 8.4396722313037076e-01  0.0000000000000000e+00 1.6607311168482022e-01 8.4477418557419026e-01  0.0000000000000000e+00 1.6590966386306208e-01 8.4560989274867371e-01  0.0000000000000000e+00 1.6576193176731624e-01 8.4646467538820125e-01  0.0000000000000000e+00 1.6562785102312316e-01 8.4733549641279426e-01  0.0000000000000000e+00 1.6550526937875437e-01 8.4821965789721454e-01  0.0000000000000000e+00 1.6540302007988655e-01 8.4912618064698653e-01  0.0000000000000000e+00 1.6531524450810620e-01 8.5004788824255817e-01  0.0000000000000000e+00 1.6524021962061144e-01 8.5098265222372549e-01  0.0000000000000000e+00 1.6518954352220067e-01 8.5194037500902753e-01  0.0000000000000000e+00 1.6514528823335078e-01 8.5290406538079278e-01  0.0000000000000000e+00 1.6511273470265225e-01 8.5387814889318847e-01  0.0000000000000000e+00 1.6510275664457943e-01 8.5487064697374626e-01  0.0000000000000000e+00 1.6510627246681286e-01 8.5587306113671158e-01  0.0000000000000000e+00 1.6512275746232782e-01 8.5688435937466190e-01  0.0000000000000000e+00 1.6515183819393692e-01 8.5790354893730569e-01  0.0000000000000000e+00 1.6519262649553465e-01 8.5892934335326443e-01  0.0000000000000000e+00 1.6524710631354156e-01 8.5996197062420610e-01  0.0000000000000000e+00 1.6531937244597361e-01 8.6100180340849086e-01  0.0000000000000000e+00 1.6539171207905298e-01 8.6204054938451324e-01  0.0000000000000000e+00 1.6548323510927468e-01 8.6308474235641963e-01  0.0000000000000000e+00 1.6558040055399428e-01 8.6412828118142793e-01  0.0000000000000000e+00 1.6569115735081211e-01 8.6517265782305541e-01  0.0000000000000000e+00 1.6580798485944581e-01 8.6621459117180843e-01  0.0000000000000000e+00 1.6593455257340609e-01 8.6725369388664231e-01  0.0000000000000000e+00 1.6606929254646186e-01 8.6828823364357588e-01  0.0000000000000000e+00 1.6621108345052818e-01 8.6931681121723492e-01  0.0000000000000000e+00 1.6635919284351394e-01 8.7033800784130533e-01  0.0000000000000000e+00 1.6651227377785294e-01 8.7135055320793897e-01  0.0000000000000000e+00 1.6667108919299461e-01 8.7235269251253345e-01  0.0000000000000000e+00 1.6683405346949656e-01 8.7334309536868560e-01  0.0000000000000000e+00 1.6699754387233684e-01 8.7432227558182440e-01  0.0000000000000000e+00 1.6716578066569313e-01 8.7528594448917330e-01  0.0000000000000000e+00 1.6734055869203981e-01 8.7623020117353345e-01  0.0000000000000000e+00 1.6751028232159346e-01 8.7716234752982059e-01  0.0000000000000000e+00 1.6768013670389603e-01 8.7807655820948982e-01  0.0000000000000000e+00 1.6785439196546037e-01 8.7896608871638326e-01  0.0000000000000000e+00 1.6802313851503975e-01 8.7984004384205328e-01  0.0000000000000000e+00 1.6818995603548853e-01 8.8069228284652079e-01  0.0000000000000000e+00 1.6835963407447432e-01 8.8151314563227590e-01  0.0000000000000000e+00 1.6852448491114944e-01 8.8231126125943538e-01  0.0000000000000000e+00 1.6868363913873144e-01 8.8308719426163818e-01  0.0000000000000000e+00 1.6883776465216177e-01 8.8383747392455037e-01  0.0000000000000000e+00 1.6898864579714476e-01 8.8455610590821976e-01  0.0000000000000000e+00 1.6913308950632686e-01 8.8524755326913496e-01  0.0000000000000000e+00 1.6927158894105951e-01 8.8590849240834701e-01  0.0000000000000000e+00 1.6940387031332760e-01 8.8653707317205377e-01  0.0000000000000000e+00 1.6952848751514180e-01 8.8713510580953503e-01  0.0000000000000000e+00 1.6964442868393326e-01 8.8770404076178477e-01  0.0000000000000000e+00 1.6975308106914877e-01 8.8823681167999857e-01  0.0000000000000000e+00 1.6985453842135737e-01 8.8873069775808522e-01  0.0000000000000000e+00 1.6994688367658570e-01 8.8919029396028448e-01  0.0000000000000000e+00 1.7002973098566770e-01 8.8961514936868935e-01  0.0000000000000000e+00 1.7010306867843164e-01 8.9000404666236521e-01  0.0000000000000000e+00 1.7016598110112610e-01 8.9035923540426376e-01  0.0000000000000000e+00 1.7026470491616938e-01 8.9094187782087664e-01  0.0000000000000000e+00 1.7029340722486297e-01 8.9120698210532767e-01  0.0000000000000000e+00 1.7031925414066570e-01 8.9139338997278239e-01  0.0000000000000000e+00 1.7033089330007362e-01 8.9156120856135723e-01  0.0000000000000000e+00 1.7033252066085008e-01 8.9168834548502007e-01  0.0000000000000000e+00 1.7032459969760183e-01 8.9177298356454671e-01  0.0000000000000000e+00 1.7030611471534990e-01 8.9182073825239538e-01  0.0000000000000000e+00 1.7027689359770584e-01 8.9183248483794475e-01  0.0000000000000000e+00 1.7023949443121722e-01 8.9179731929523232e-01  0.0000000000000000e+00 1.7018797024679666e-01 8.9174411102875017e-01  0.0000000000000000e+00 1.7013068759139510e-01 8.9163462251770687e-01  0.0000000000000000e+00 1.7006362536435396e-01 8.9149047767233625e-01  0.0000000000000000e+00 1.6998881172037181e-01 8.9130361555440407e-01  0.0000000000000000e+00 1.6990119728112690e-01 8.9109710034770206e-01  0.0000000000000000e+00 1.6980644370324310e-01 8.9084935676358235e-01  0.0000000000000000e+00 1.6970570895698453e-01 8.9055855483199664e-01  0.0000000000000000e+00 1.6959669134384278e-01 8.9023579618183390e-01  0.0000000000000000e+00 1.6948092462608969e-01 8.8987794525974073e-01  0.0000000000000000e+00 1.6935847568713081e-01 8.8948713562340564e-01  0.0000000000000000e+00 1.6922923890598771e-01 8.8906569240942768e-01  0.0000000000000000e+00 1.6909576282098934e-01 8.8860895008862550e-01  0.0000000000000000e+00 1.6895917653049769e-01 8.8811656097290093e-01  0.0000000000000000e+00 1.6881726469776917e-01 8.8759715792528915e-01  0.0000000000000000e+00 1.6867109459814184e-01 8.8705004708794077e-01  0.0000000000000000e+00 1.6852199769352408e-01 8.8647444102878425e-01  0.0000000000000000e+00 1.6837096776226790e-01 8.8587074305122759e-01  0.0000000000000000e+00 1.6821893767271914e-01 8.8523963522138960e-01  0.0000000000000000e+00 1.6806598220801863e-01 8.8458340875807739e-01  0.0000000000000000e+00 1.6791331370752199e-01 8.8390239074172794e-01  0.0000000000000000e+00 1.6776139081450170e-01 8.8319815597066353e-01  0.0000000000000000e+00 1.6761071501092714e-01 8.8247220732171883e-01  0.0000000000000000e+00 1.6746210176870840e-01 8.8172559461234423e-01  0.0000000000000000e+00 1.6731475238299096e-01 8.8096092255948988e-01  0.0000000000000000e+00 1.6717121286995831e-01 8.8017760579065452e-01  0.0000000000000000e+00 1.6703449443873497e-01 8.7937458289263259e-01  0.0000000000000000e+00 1.6690224799980830e-01 8.7855647237846779e-01  0.0000000000000000e+00 1.6677634317564904e-01 8.7772341164549450e-01  0.0000000000000000e+00 1.6665567022054889e-01 8.7687790193403081e-01  0.0000000000000000e+00 1.6654162184184113e-01 8.7602058713621711e-01  0.0000000000000000e+00 1.6643276965358381e-01 8.7515331100655236e-01  0.0000000000000000e+00 1.6633697020971225e-01 8.7427466365283246e-01  0.0000000000000000e+00 1.6625217877913681e-01 8.7338717734362215e-01  0.0000000000000000e+00 1.6616918139404718e-01 8.7249475258236631e-01  0.0000000000000000e+00 1.6610071600126400e-01 8.7159534889848878e-01  0.0000000000000000e+00 1.6604446126362613e-01 8.7069102065266346e-01  0.0000000000000000e+00 1.6600285515894822e-01 8.6978352687326588e-01  0.0000000000000000e+00 1.6596262182924451e-01 8.6887371077904352e-01  0.0000000000000000e+00 1.6594605004836935e-01 8.6796294003066266e-01  0.0000000000000000e+00 1.6593468059140079e-01 8.6705186614000551e-01  0.0000000000000000e+00 1.6594274334954354e-01 8.6614266153898678e-01  0.0000000000000000e+00 1.6595143536547963e-01 8.6523270545971065e-01  0.0000000000000000e+00 1.6598230722449286e-01 8.6432745496715646e-01  0.0000000000000000e+00 1.6603058663838430e-01 8.6342734081021077e-01  0.0000000000000000e+00 1.6609092891188090e-01 8.6253158521702233e-01  0.0000000000000000e+00 1.6616684036465296e-01 8.6164219749300386e-01  0.0000000000000000e+00 1.6625613393353922e-01 8.6075898140448470e-01  0.0000000000000000e+00 1.6647628474272105e-01 8.5901422324876087e-01  0.0000000000000000e+00 1.6661221285499622e-01 8.5815699593645622e-01  0.0000000000000000e+00 1.6675987201882531e-01 8.5730748927901923e-01  0.0000000000000000e+00 1.6692432939448976e-01 8.5646960524802973e-01  0.0000000000000000e+00 1.6710270566208843e-01 8.5564205724805131e-01  0.0000000000000000e+00 1.6729585532072661e-01 8.5482607782634701e-01  0.0000000000000000e+00 1.6750330242301265e-01 8.5402194104510709e-01  0.0000000000000000e+00 1.6772527390843434e-01 8.5323050718927451e-01  0.0000000000000000e+00 1.6796178848690457e-01 8.5245251245219900e-01  0.0000000000000000e+00 1.6821299782005689e-01 8.5168891970155181e-01  0.0000000000000000e+00 1.6847657370825539e-01 8.5093809185667380e-01  0.0000000000000000e+00 1.6875637724573939e-01 8.5020515164942101e-01  0.0000000000000000e+00 1.6904358261460387e-01 8.4948064340573581e-01  0.0000000000000000e+00 1.6934497004337026e-01 8.4877329069365925e-01  0.0000000000000000e+00 1.6965975959934262e-01 8.4808329136293226e-01  0.0000000000000000e+00 1.6997626832776180e-01 8.4739541378936900e-01  0.0000000000000000e+00 1.7030884279688041e-01 8.4673011344613525e-01  0.0000000000000000e+00 1.7065532374081063e-01 8.4608653330280914e-01  0.0000000000000000e+00 1.7100702558552397e-01 8.4545236665441981e-01  0.0000000000000000e+00 1.7136605813357969e-01 8.4483158262886793e-01  0.0000000000000000e+00 1.7173223704769222e-01 8.4422500498682485e-01  0.0000000000000000e+00 1.7210590905366405e-01 8.4363462531635103e-01  0.0000000000000000e+00 1.7248518036834851e-01 8.4305846304389775e-01  0.0000000000000000e+00 1.7286859318074105e-01 8.4249466987938171e-01  0.0000000000000000e+00 1.7325894169936601e-01 8.4195193601724816e-01  0.0000000000000000e+00 1.7365066882712135e-01 8.4141864015412537e-01  0.0000000000000000e+00 1.7404379977495352e-01 8.4089682254045128e-01  0.0000000000000000e+00 1.7444135808118927e-01 8.4039718844272249e-01  0.0000000000000000e+00 1.7483782795765829e-01 8.3990663001409060e-01  0.0000000000000000e+00 1.7523355241837271e-01 8.3942790383164423e-01  0.0000000000000000e+00 1.7562811234643644e-01 8.3896277710055989e-01  0.0000000000000000e+00 1.7602095549211422e-01 8.3851276753007009e-01  0.0000000000000000e+00 1.7641058361788195e-01 8.3807568989723891e-01  0.0000000000000000e+00 1.7679573232869264e-01 8.3764919871528110e-01  0.0000000000000000e+00 1.7717527214019688e-01 8.3723046769777076e-01  0.0000000000000000e+00 1.7755012673953827e-01 8.3683413606362800e-01  0.0000000000000000e+00 1.7791792233046727e-01 8.3644943484487200e-01  0.0000000000000000e+00 1.7827662346164924e-01 8.3606196410699762e-01  0.0000000000000000e+00 1.7862739499178376e-01 8.3569447254241047e-01  0.0000000000000000e+00 1.7896864189063785e-01 8.3534060449052339e-01  0.0000000000000000e+00 1.7929929032991226e-01 8.3499375874118642e-01  0.0000000000000000e+00 1.7961862415481539e-01 8.3465926095073717e-01  0.0000000000000000e+00 1.7992594727221806e-01 8.3433209520034102e-01  0.0000000000000000e+00 1.8022008950866883e-01 8.3402062857554016e-01  0.0000000000000000e+00 1.8050081731078560e-01 8.3371439109885281e-01  0.0000000000000000e+00 1.8076694880862676e-01 8.3342011695648388e-01  0.0000000000000000e+00 1.8101788044180930e-01 8.3313685307905616e-01  0.0000000000000000e+00 1.8125352316872864e-01 8.3285794537557811e-01  0.0000000000000000e+00 1.8147225406592057e-01 8.3259304812758783e-01  0.0000000000000000e+00 1.8167391730698113e-01 8.3233830195627045e-01  0.0000000000000000e+00 1.8185867203994957e-01 8.3208772449557433e-01  0.0000000000000000e+00 1.8202519470389725e-01 8.3184830288558154e-01  0.0000000000000000e+00 1.8217209261259168e-01 8.3162424241290822e-01  0.0000000000000000e+00 1.8230122469859933e-01 8.3140325091443446e-01  0.0000000000000000e+00 1.8241161006441908e-01 8.3118810008922106e-01  0.0000000000000000e+00 1.8250149541242008e-01 8.3098761400057441e-01  0.0000000000000000e+00 1.7975905895774727e-01 8.3513439146268187e-01  0.0000000000000000e+00 1.6659977787224806e-01 8.7299451312235832e-01  0.0000000000000000e+00 1.7616225676464906e-01 8.3080020201328308e-01  0.0000000000000000e+00 1.6675259691619551e-01 8.6055415602517482e-01  0.0000000000000000e+00 1.8240647839622162e-01 8.3156382865400713e-01  0.0000000000000000e+00 1.6897978828688540e-01 8.8300311069263093e-01  0.0000000000000000e+00 1.7113840385257315e-01 8.3495068104400461e-01  0.0000000000000000e+00 1.6700344904944750e-01 8.4341191409112348e-01  0.0000000000000000e+00 1.7038990682849992e-01 8.9012333490788431e-01  0.0000000000000000e+00 1.6679108978775259e-01 8.7076635332107521e-01  0.0000000000000000e+00 1.7668216984450821e-01 8.3841428778224159e-01  0.0000000000000000e+00 1.6783363574979573e-01 8.8174016314184789e-01  0.0000000000000000e+00 1.6755968729650433e-01 8.7564170945078368e-01  0.0000000000000000e+00 1.7444258402367466e-01 8.4119122051691908e-01  0.0000000000000000e+00 1.6596402500538876e-01 8.6374189420970593e-01  0.0000000000000000e+00 1.7842390266618630e-01 8.2996309832124049e-01  0.0000000000000000e+00 1.6883404803810143e-01 8.8629801624255511e-01  0.0000000000000000e+00 1.6971899031777890e-01 8.8946191616363224e-01  0.0000000000000000e+00 1.8053769941716302e-01 8.2974457104838772e-01  0.0000000000000000e+00 1.7185780226008060e-01 8.4501408591786864e-01  0.0000000000000000e+00 1.6553498916169651e-01 8.5766806908748905e-01  0.0000000000000000e+00 1.6956351296173272e-01 8.4959237268112464e-01  0.0000000000000000e+00 1.8147161783143648e-01 8.2981392993773406e-01  0.0000000000000000e+00 1.7025499875699393e-01 8.9082982669553501e-01  0.0000000000000000e+00 1.6568850332459162e-01 8.5200649325549094e-01  0.0000000000000000e+00 1.6832152417850718e-01 8.5329757859922883e-01  0.0000000000000000e+00 1.8223528163047717e-01 8.3025777953250068e-01  0.0000000000000000e+00 1.8127938061234788e-01 8.3342597033557519e-01  0.0000000000000000e+00 1.6636948541376739e-01 8.6755938999876114e-01  0.0000000000000000e+00 1.6976380879544273e-01 8.8684106892422965e-01  0.0000000000000000e+00 1.6909471684143404e-01 8.3805282775790224e-01  0.0000000000000000e+00 1.7388519409167183e-01 8.3220200168529834e-01  0.0000000000000000e+00 1.7044385077863775e-01 8.9116665009446716e-01  0.0000000000000000e+00 1.6601379215507867e-01 8.4834342618895731e-01  0.0000000000000000e+00 1.6744794217007944e-01 8.5638726759309025e-01  0.0000000000000000e+00 1.8250321369512493e-01 8.3072058158989592e-01  0.0000000000000000e+00 1.6817101868281195e-01 8.7907299352214907e-01  0.0000000000000000e+00 1.6704860071301150e-01 8.7709304706272151e-01  0.0000000000000000e+00 1.8198701516625843e-01 8.3240835159720794e-01  0.0000000000000000e+00 1.7848054282817172e-01 8.3654238411405635e-01  0.0000000000000000e+00 1.6648894937414530e-01 8.6394324133414735e-01  0.0000000000000000e+00 1.7013946542616315e-01 8.8873469134148297e-01  0.0000000000000000e+00 1.6798205106934072e-01 8.4049811510303141e-01  0.0000000000000000e+00 1.7939805365485151e-01 8.2993068507429024e-01  0.0000000000000000e+00 1.7012387174695634e-01 8.3650077785253940e-01  0.0000000000000000e+00 1.7044927738405916e-01 8.9089163819759265e-01  0.0000000000000000e+00 1.6939048228333844e-01 8.8506356220109894e-01  0.0000000000000000e+00 1.6651795773287076e-01 8.4586073144587737e-01  0.0000000000000000e+00 1.6639966568332995e-01 8.6781438272105005e-01  0.0000000000000000e+00 1.8058570913190608e-01 8.3425723148561604e-01  0.0000000000000000e+00 1.7503045847520074e-01 8.3157827255313088e-01  0.0000000000000000e+00 1.7334801166393576e-01 8.4281597660092555e-01  0.0000000000000000e+00 1.6924578377273561e-01 8.8779344988988285e-01  0.0000000000000000e+00 1.7081280770266552e-01 8.4684396866276679e-01  0.0000000000000000e+00 1.6643949733449656e-01 8.7021569503051666e-01  0.0000000000000000e+00 1.7265175937147034e-01 8.3331696523048027e-01  0.0000000000