<?xml version="1.0"?>
<VTKFile type="UnstructuredGrid"  version="0.1"  >
<UnstructuredGrid>
<Piece  NumberOfPoints="4940" NumberOfCells="9650">
<Points>
<DataArray  type="Float64"  NumberOfComponents="3"  format="ascii">500 250 0  0 250 0  250 500 0  250 0 0  256.8885856082646 499.9050767557906 0  263.7719401218049 499.6203791065173 0  270.6448364229772 499.1461232471188 0  277.5020553257866 498.4826693209355 0  284.3383895508592 497.6305211460281 0  291.1486476865662 496.5903258312597 0  297.9276581259182 495.3628732847843 0  304.6702729675493 493.9490956196674 0  311.3713719748657 492.3500664368026 0  318.0258664141369 490.5670000199653 0  324.6287029687753 488.6012504015818 0  331.1748675330201 486.4543103455647 0  337.6593890460416 484.1278102064655 0  344.0773432429536 481.6235166997244 0  350.4238564271474 478.9433315480048 0  356.694109139292 476.0892900492477 0  362.88333985546 473.0635595140469 0  368.9868485575419 469.8684376402048 0  375.0000003153078 466.5063507640667 0  380.9182288257928 462.9798520074548 0  386.7370398729688 459.2916193419558 0  392.4520147244077 455.444453565817 0  398.0588135356345 451.4412761437442 0  403.5531785622926 447.285127045646 0  408.9309374414144 442.9791624087773 0  414.1880064015299 438.5266521049243 0  419.3203932989752 433.9309773069245 0  424.324200661095 429.1956279150535 0  429.1956286596235 424.3241998957182 0  433.9309780058756 419.3203925397119 0  438.5266527445345 414.1880056671062 0  442.9791630130591 408.9309367076756 0  447.2851276060475 403.5531778422888 0  451.4412766621026 398.0588128303826 0  455.4444540361634 392.4520140460735 0  459.2916197786263 386.7370392045948 0  462.9798524073514 380.9182281752347 0  466.5063511234856 374.9999996927758 0  469.8684379657123 368.9868479560565 0  473.0635598144817 362.8833392617846 0  476.0892903190255 356.6941085676214 0  478.9433317963513 350.4238558609745 0  481.6235169154735 344.0773427117675 0  484.12781039012 337.6593885555221 0  486.4543105028062 331.1748670749914 0  488.601250531677 324.6287025528375 0  490.5670001317469 318.0258660188321 0  492.3500665291326 311.3713716102628 0  493.949095695951 304.6702726271575 0  495.3628733416623 297.9276578347343 0  496.5903258712341 291.1486474470129 0  497.6305211749058 284.3383893426084 0  498.4826693388848 277.502055163614 0  499.1461232580606 270.6448362909296 0  499.6203791109319 263.7719400417897 0  499.9050767571306 256.8885855596534 0  499.9050767559877 243.1114143988867 0  499.6203791069493 236.2280598860241 0  499.1461232485393 229.3551635941651 0  498.4826693235677 222.4979446979962 0  497.6305211491849 215.6616104719064 0  496.5903258357701 208.8513523404629 0  495.3628732906988 202.0723419043604 0  493.9490956264813 195.3297270628552 0  492.3500664487791 188.6286280724281 0  490.5670000344809 181.9741336371959 0  488.6012504175981 175.3712970824318 0  486.4543103623226 168.8251325157939 0  484.1278102222298 162.3406109960628 0  481.6235167152198 155.9226567951971 0  478.9433315621651 149.5761436051346 0  476.0892900516498 143.3058908657982 0  473.063559513628 137.1166601437124 0  469.8684376406648 131.0131514433083 0  466.5063507675389 124.9999996907064 0  462.9798520124137 119.0817711822745 0  459.2916193464549 113.2629601339176 0  455.4444535642773 107.5479852733717 0  451.4412761528674 101.9411864767781 0  447.2851270583545 96.44682145403524 0  442.9791624165781 91.06906256805769 0  438.5266521117469 85.81199360630404 0  433.9309773156125 80.67960671046254 0  429.1956279150353 75.67579933888632 0  424.3241998888952 70.80437133373906 0  419.3203925223282 66.06902197812161 0  414.1880056411937 61.47334723289828 0  408.9309366751728 57.0208369601728 0  403.5531778009394 52.71487236176898 0  398.058812796452 48.55872331295853 0  392.4520140187753 44.55554594490843 0  386.7370391799677 40.70838020528396 0  380.9182281475119 37.02014757560744 0  374.9999996718656 33.49364886444181 0  368.9868479340393 30.13156202237255 0  362.8833392380029 26.93644017348339 0  356.6941085456942 23.91070967062674 0  350.4238558420009 21.0566681953261 0  344.0773426899492 18.37648307566465 0  337.6593885328982 15.87218960140942 0  331.1748670549786 13.54568949032341 0  324.6287025315056 11.39874946165088 0  318.0258660010876 9.432999863235466 0  311.3713716017894 7.649933468721599 0  304.6702726190621 6.050904302234756 0  297.9276578269805 4.637126656823085 0  291.148647441857 3.409674127905504 0  284.3383893425031 2.369478825079682 0  277.502055159398 1.517330660648639 0  270.6448362875833 0.853876741662134 0  263.7719400401456 0.3796208889774277 0  256.8885855592052 0.09492324285704967 0  243.1114143979462 0.09492324403817065 0  236.2280598850882 0.3796208931023841 0  229.3551635938215 0.8538767514891958 0  222.4979446968584 1.517330676558146 0  215.6616104703111 2.369478851036291 0  208.8513523382973 3.409674164591252 0  202.0723419066374 4.637126708856528 0  195.3297270659513 6.050904372824903 0  188.628628074828 7.649933550613184 0  181.9741336377093 9.432999965373938 0  175.3712970793675 11.39874958336037 0  168.8251325057572 13.54568964112298 0  162.340610986655 15.87218978129263 0  155.9226567874317 18.37648328793418 0  149.576143602509 21.05666843898663 0  143.3058908718157 23.91070994551046 0  137.1166601505524 26.93644048291054 0  131.0131514451933 30.13156235831508 0  124.9999996848412 33.49364923584736 0  119.0817711715717 37.0201479941652 0  113.2629601211624 40.70838066187849 0  107.5479852622251 44.55554644345162 0  101.9411864693332 48.55872385260452 0  96.44682143286516 52.71487295812284 0  91.06906254351222 57.02083760363669 0  85.81199358272519 61.4733479087879 0  80.67960667988106 66.06902271253972 0  75.67579930062769 70.80437212218331 0  70.80437129287643 75.67580015310926 0  66.06902193673014 80.67960752263491 0  61.47334718684866 85.81199441168215 0  57.02083692524275 91.0690633672404 0  52.71487232786438 96.44682224262129 0  48.55872328070024 101.941187247437 0  44.55554591578033 107.5479860232332 0  40.7083801742321 113.2629608675606 0  37.02014754791168 119.0817718975441 0  33.49364883372994 125.000000381329 0  30.13156199866361 131.0131521097709 0  26.9364401549829 137.1166607985551 0  23.91070965524918 143.3058914868915 0  21.05666818346614 149.576144185037 0  18.37648306853811 155.9226573275967 0  15.8721895918909 162.3406114925245 0  13.54568948170046 168.8251329701392 0  11.39874945301878 175.3712974960928 0  9.432999857087736 181.9741340206533 0  7.649933466342702 188.6286284076045 0  6.050904301250966 195.3297273853278 0  4.637126656808988 202.0723421730917 0  3.409674127767772 208.8513525589684 0  2.369478824521138 215.6616106615248 0  1.517330660909465 222.4979448382452 0  0.8538767414496533 229.355163714981 0  0.3796208887135322 236.2280599646376 0  0.09492324266324204 243.1114144478261 0  0.0949232442452228 256.8885856095658 0  0.3796208935834784 263.7719401236316 0  0.8538767530323526 270.6448364248016 0  1.517330679476544 277.5020553295092 0  2.369478854618649 284.3383895555228 0  3.409674170191892 291.1486476952655 0  4.6371267162381 297.9276581311522 0  6.050904381420935 304.6702729724059 0  7.649933562385399 311.3713719716595 0  9.43299997979841 318.0258664133013 0  11.3987495994252 324.6287029719946 0  13.54568965885832 331.174867545904 0  15.87218979367188 337.6593890464085 0  18.37648329843151 344.0773432384132 0  21.05666844777872 350.423856417535 0  23.91070995156048 356.6941091410045 0  26.93644048988043 362.8833398632205 0  30.13156235982007 368.9868485575877 0  33.49364924138357 375.0000003247478 0  37.0201480006036 380.9182288389023 0  40.70838066758398 386.7370398875706 0  44.55554644477201 392.4520147396792 0  48.55872386086904 398.0588135419111 0  52.71487295981296 403.5531785693063 0  57.02083760525949 408.9309374584583 0  61.47334790862246 414.1880064170849 0  66.06902271205095 419.320393319588 0  70.80437211216579 424.3242006890749 0  75.67580013809859 429.195628692521 0  80.6796075127923 433.930978054209 0  85.81199439754931 438.5266528008431 0  91.06906334717917 442.9791630582355 0  96.44682221438322 447.2851276501571 0  101.9411872243843 451.441276702356 0  107.5479859945825 455.4444540643537 0  113.2629608446994 459.2916198108319 0  119.0817718768376 462.9798524393601 0  125.0000003647644 466.5063511567065 0  131.0131521012763 469.8684379967393 0  137.1166607840049 473.0635598376539 0  143.3058914748804 476.0892903390826 0  149.5761441732679 478.9433318113714 0  155.9226573130112 481.6235169255377 0  162.3406114779862 484.1278104026658 0  168.8251329570439 486.4543105138039 0  175.3712974805475 488.601250542119 0  181.9741340135204 490.5670001408953 0  188.6286284005059 492.3500665318597 0  195.3297273788229 493.9490956972913 0  202.0723421640089 495.3628733414168 0  208.8513525529672 496.5903258712308 0  215.6616106544547 497.6305211744985 0  222.4979448327038 498.4826693384772 0  229.3551637102845 499.1461232581612 0  236.2280599621369 499.6203791111485 0  243.1114144470173 499.9050767573145 0  155.2373389820306 474.8197567317462 0  25.36256300907667 153.9152755065208 0  432.3709625126712 412.6214396304305 0  6.013151705810699 246.637913163471 0  246.6379131630491 493.986848294322 0  338.6995838441862 22.68244767887072 0  477.3175523131281 338.6995838660569 0  493.9868482700757 246.6379131399102 0  246.6201155078769 6.218451882810491 0  417.6179310263282 72.7156044707053 0  102.2232990934413 445.0100869616822 0  63.66330858966404 92.20354579482142 0  391.3105220491464 50.73522820883105 0  72.79295043967942 418.0702734974704 0  448.290574428537 108.25674339002 0  402.4604651193511 440.7462829841712 0  97.55317348421397 59.11376320116034 0  136.7376477664901 33.58246472647134 0  363.3288394375288 465.6947312928271 0  44.0678766556007 381.0860953771871 0  469.6905266180034 142.3890690100806 0  22.68244791668644 338.6995843487432 0  338.699584349159 477.317552078365 0  173.389488083762 18.6681884918202 0  483.4809734778481 179.7121987795732 0  13.50237455842738 306.4709525540879 0  305.9825168523021 487.24416992
[...]
<PointData  Vectors="f_12"> 
<DataArray  type="Float64"  Name="f_12"  NumberOfComponents="3" format="ascii">0.0000000000000000e+00 2.6699423708224982e-02 6.1378805160614405e-02  0.0000000000000000e+00 2.2358210250724056e-02 8.2969718827794942e-02  0.0000000000000000e+00 3.1421552080836163e-02 4.7793535062075294e-02  0.0000000000000000e+00 1.7463419637967090e-02 1.4034099498524166e-01  0.0000000000000000e+00 3.1491913029877541e-02 4.7636981493926103e-02  0.0000000000000000e+00 3.1554735464051673e-02 4.7498196355689352e-02  0.0000000000000000e+00 3.1617391311695338e-02 4.7360476071604908e-02  0.0000000000000000e+00 3.1673716992384082e-02 4.7237407149529287e-02  0.0000000000000000e+00 3.1726380047062956e-02 4.7122948127569057e-02  0.0000000000000000e+00 3.1774637287678306e-02 4.7018476749409142e-02  0.0000000000000000e+00 3.1818646646741326e-02 4.6923618426889240e-02  0.0000000000000000e+00 3.1859059341811616e-02 4.6836841513923491e-02  0.0000000000000000e+00 3.1895094969496045e-02 4.6759707146001278e-02  0.0000000000000000e+00 3.1926224029837226e-02 4.6693311870893310e-02  0.0000000000000000e+00 3.1947446808362444e-02 4.6648260577406245e-02  0.0000000000000000e+00 3.1974056701155829e-02 4.6591622385956162e-02  0.0000000000000000e+00 3.1982222141286293e-02 4.6574445316782127e-02  0.0000000000000000e+00 3.1993723757239391e-02 4.6550033102626925e-02  0.0000000000000000e+00 3.1998020033545183e-02 4.6540969722036189e-02  0.0000000000000000e+00 3.1997529897993718e-02 4.6542007367471265e-02  0.0000000000000000e+00 3.1992963148729223e-02 4.6551509747583382e-02  0.0000000000000000e+00 3.1978350976571777e-02 4.6582569196907578e-02  0.0000000000000000e+00 3.1957385135607051e-02 4.6627199734515852e-02  0.0000000000000000e+00 3.1935729789217694e-02 4.6673110514437760e-02  0.0000000000000000e+00 3.1907181935233744e-02 4.6733867821127505e-02  0.0000000000000000e+00 3.1869609542294820e-02 4.6814249913387417e-02  0.0000000000000000e+00 3.1821860738017002e-02 4.6916846667428853e-02  0.0000000000000000e+00 3.1773792917282224e-02 4.7020370732295633e-02  0.0000000000000000e+00 3.1719755852544017e-02 4.7137301475180748e-02  0.0000000000000000e+00 3.1653366061659013e-02 4.7281931796767311e-02  0.0000000000000000e+00 3.1584828612053174e-02 4.7432065799235285e-02  0.0000000000000000e+00 3.1508260908871565e-02 4.7600991571662310e-02  0.0000000000000000e+00 3.1424494695671511e-02 4.7787232065816795e-02  0.0000000000000000e+00 3.1336765446160840e-02 4.7983696846539768e-02  0.0000000000000000e+00 3.1237250673419634e-02 4.8208678563049778e-02  0.0000000000000000e+00 3.1132482231802591e-02 4.8447901803131480e-02  0.0000000000000000e+00 3.1025345976939549e-02 4.8694729465396137e-02  0.0000000000000000e+00 3.0907712130660174e-02 4.8968859539716109e-02  0.0000000000000000e+00 3.0779660340267329e-02 4.9271116920931710e-02  0.0000000000000000e+00 3.0648634998190569e-02 4.9584134664244051e-02  0.0000000000000000e+00 3.0515277478140302e-02 4.9906762766289574e-02  0.0000000000000000e+00 3.0372378104632957e-02 5.0257469611209186e-02  0.0000000000000000e+00 3.0220209303935274e-02 5.0636358393131832e-02  0.0000000000000000e+00 3.0064957155127199e-02 5.1029032010849268e-02  0.0000000000000000e+00 2.9902897595682029e-02 5.1445753784741262e-02  0.0000000000000000e+00 2.9735212909298540e-02 5.1884138288169145e-02  0.0000000000000000e+00 2.9563010932663624e-02 5.2342288866251613e-02  0.0000000000000000e+00 2.9387231661558207e-02 5.2818714100296468e-02  0.0000000000000000e+00 2.9202062769968212e-02 5.3330427181610802e-02  0.0000000000000000e+00 2.9014099562960655e-02 5.3859991341727531e-02  0.0000000000000000e+00 2.8822657126278396e-02 5.4410889583562987e-02  0.0000000000000000e+00 2.8626526192977765e-02 5.4986779141461141e-02  0.0000000000000000e+00 2.8427643026730284e-02 5.5583861482755133e-02  0.0000000000000000e+00 2.8222448759126245e-02 5.6213732132447403e-02  0.0000000000000000e+00 2.8014512312579228e-02 5.6866704708014006e-02  0.0000000000000000e+00 2.7804598918758180e-02 5.7541659241397085e-02  0.0000000000000000e+00 2.7589828127691125e-02 5.8248785614832578e-02  0.0000000000000000e+00 2.7372379646588538e-02 5.8983068636327067e-02  0.0000000000000000e+00 2.7152423205372742e-02 5.9742896221249474e-02  0.0000000000000000e+00 2.6933872546746125e-02 6.0516354417193378e-02  0.0000000000000000e+00 2.6471796949560641e-02 6.2225688654634057e-02  0.0000000000000000e+00 2.6241323801879015e-02 6.3112730064990741e-02  0.0000000000000000e+00 2.6010385328707267e-02 6.4027172383700912e-02  0.0000000000000000e+00 2.5773656855512445e-02 6.4989535019051442e-02  0.0000000000000000e+00 2.5536669999832843e-02 6.5983861708844724e-02  0.0000000000000000e+00 2.5297784068197587e-02 6.7013650139986197e-02  0.0000000000000000e+00 2.5058606515492451e-02 6.8079245926945142e-02  0.0000000000000000e+00 2.4818434927748781e-02 6.9181921652843703e-02  0.0000000000000000e+00 2.4578722941401024e-02 7.0318535017404871e-02  0.0000000000000000e+00 2.4340250147753012e-02 7.1486982651084052e-02  0.0000000000000000e+00 2.4101416196851477e-02 7.2695792916155619e-02  0.0000000000000000e+00 2.3865979476600480e-02 7.3929692058397597e-02  0.0000000000000000e+00 2.3632005779089239e-02 7.5197577826747436e-02  0.0000000000000000e+00 2.3400306390647340e-02 7.6498183816929702e-02  0.0000000000000000e+00 2.3171530759137342e-02 7.7828090619741608e-02  0.0000000000000000e+00 2.2946574871012853e-02 7.9183904041769199e-02  0.0000000000000000e+00 2.2725229298612603e-02 8.0565982886683804e-02  0.0000000000000000e+00 2.2507815839855096e-02 8.1973548584669417e-02  0.0000000000000000e+00 2.2294073925786077e-02 8.3408122377055333e-02  0.0000000000000000e+00 2.2084181656500352e-02 8.4868424684101246e-02  0.0000000000000000e+00 2.1878425230313539e-02 8.6351283368781881e-02  0.0000000000000000e+00 2.1676478823750834e-02 8.7861698553080722e-02  0.0000000000000000e+00 2.1478018628810849e-02 8.9399442119644665e-02  0.0000000000000000e+00 2.1283548003342052e-02 9.0960540389942487e-02  0.0000000000000000e+00 2.1092452887902600e-02 9.2550131066987715e-02  0.0000000000000000e+00 2.0904904018768194e-02 9.4166584576019050e-02  0.0000000000000000e+00 2.0720846895507249e-02 9.5809468626536221e-02  0.0000000000000000e+00 2.0540487760526239e-02 9.7477890813545451e-02  0.0000000000000000e+00 2.0363830617826432e-02 9.9169052815140546e-02  0.0000000000000000e+00 2.0191016452185191e-02 1.0088397449956296e-01  0.0000000000000000e+00 2.0022286912220192e-02 1.0261739498304928e-01  0.0000000000000000e+00 1.9857854306928088e-02 1.0436686221963064e-01  0.0000000000000000e+00 1.9697703138244448e-02 1.0613286322186542e-01  0.0000000000000000e+00 1.9542541658886817e-02 1.0790388549126029e-01  0.0000000000000000e+00 1.9393276169070092e-02 1.0966786891992000e-01  0.0000000000000000e+00 1.9248373050202123e-02 1.1144128130809136e-01  0.0000000000000000e+00 1.9108668449243544e-02 1.1321134544815696e-01  0.0000000000000000e+00 1.8975827420666870e-02 1.1495283010848630e-01  0.0000000000000000e+00 1.8847641662152883e-02 1.1669044265380517e-01  0.0000000000000000e+00 1.8724374641560137e-02 1.1841893707012754e-01  0.0000000000000000e+00 1.8608589726465122e-02 1.2009445878475042e-01  0.0000000000000000e+00 1.8498302703766758e-02 1.2174701371969454e-01  0.0000000000000000e+00 1.8393540321830028e-02 1.2336138407889935e-01  0.0000000000000000e+00 1.8294116905899587e-02 1.2494307829123368e-01  0.0000000000000000e+00 1.8200271485092259e-02 1.2647943878774354e-01  0.0000000000000000e+00 1.8111701791919798e-02 1.2797180589170720e-01  0.0000000000000000e+00 1.8028493388291999e-02 1.2941216349938384e-01  0.0000000000000000e+00 1.7950669819862073e-02 1.3079478984742890e-01  0.0000000000000000e+00 1.7877513214963107e-02 1.3212811438133215e-01  0.0000000000000000e+00 1.7808860775157812e-02 1.3340818349790967e-01  0.0000000000000000e+00 1.7745252836153594e-02 1.3462105908141273e-01  0.0000000000000000e+00 1.7686861071497376e-02 1.3575937691883824e-01  0.0000000000000000e+00 1.7633481712460118e-02 1.3682094812984610e-01  0.0000000000000000e+00 1.7584018881591987e-02 1.3782308723871239e-01  0.0000000000000000e+00 1.7539429943621777e-02 1.3874135334979962e-01  0.0000000000000000e+00 1.7499068364967531e-02 1.3958632760868714e-01  0.0000000000000000e+00 1.7433914787888066e-02 1.4097848083158973e-01  0.0000000000000000e+00 1.7401285467972923e-02 1.4168120384976135e-01  0.0000000000000000e+00 1.7381448295727239e-02 1.4211902663882106e-01  0.0000000000000000e+00 1.7362732919863094e-02 1.4253307230785781e-01  0.0000000000000000e+00 1.7347747354655947e-02 1.4286609315479251e-01  0.0000000000000000e+00 1.7337563970078046e-02 1.4309448700351743e-01  0.0000000000000000e+00 1.7331886513844878e-02 1.4322163281314665e-01  0.0000000000000000e+00 1.7329806323762412e-02 1.4326839363616772e-01  0.0000000000000000e+00 1.7332104901566552e-02 1.4321674676961788e-01  0.0000000000000000e+00 1.7335375976597383e-02 1.4314279211782352e-01  0.0000000000000000e+00 1.7347495089519049e-02 1.4287198847997723e-01  0.0000000000000000e+00 1.7362253503233133e-02 1.4254356681155442e-01  0.0000000000000000e+00 1.7381031854925285e-02 1.4212945227506715e-01  0.0000000000000000e+00 1.7402556654798430e-02 1.4165605385221844e-01  0.0000000000000000e+00 1.7428788762611048e-02 1.4108525694155055e-01  0.0000000000000000e+00 1.7460404493645481e-02 1.4040595540052800e-01  0.0000000000000000e+00 1.7495290620766810e-02 1.3966523872430656e-01  0.0000000000000000e+00 1.7534135764726014e-02 1.3885118579668998e-01  0.0000000000000000e+00 1.7576925021405829e-02 1.3796750370570132e-01  0.0000000000000000e+00 1.7623899545992999e-02 1.3701319218107252e-01  0.0000000000000000e+00 1.7675615834159917e-02 1.3598202594982806e-01  0.0000000000000000e+00 1.7731846368209788e-02 1.3488167712885379e-01  0.0000000000000000e+00 1.7791829666728650e-02 1.3373062455672555e-01  0.0000000000000000e+00 1.7855924105061035e-02 1.3252689146979973e-01  0.0000000000000000e+00 1.7924513465287527e-02 1.3126715882729573e-01  0.0000000000000000e+00 1.7997592856721756e-02 1.2995638394794973e-01  0.0000000000000000e+00 1.8075296158912700e-02 1.2859630959887711e-01  0.0000000000000000e+00 1.8157582513160176e-02 1.2719262807990384e-01  0.0000000000000000e+00 1.8244641108896207e-02 1.2574644334231985e-01  0.0000000000000000e+00 1.8336454800315878e-02 1.2426266445473523e-01  0.0000000000000000e+00 1.8433094896090688e-02 1.2274448026117321e-01  0.0000000000000000e+00 1.8534320253443523e-02 1.2120020941747413e-01  0.0000000000000000e+00 1.8640204644837441e-02 1.1963116897997590e-01  0.0000000000000000e+00 1.8751071405432022e-02 1.1803853886772724e-01  0.0000000000000000e+00 1.8867244770832927e-02 1.1641947188463413e-01  0.0000000000000000e+00 1.8988242959123287e-02 1.1478577955593108e-01  0.0000000000000000e+00 1.9113888058546583e-02 1.1314228672335130e-01  0.0000000000000000e+00 1.9243980770738300e-02 1.1149439186485423e-01  0.0000000000000000e+00 1.9378353948003930e-02 1.0984558591676076e-01  0.0000000000000000e+00 1.9516769282053419e-02 1.0820186886956458e-01  0.0000000000000000e+00 1.9660387845575705e-02 1.0655094007918076e-01  0.0000000000000000e+00 1.9807327422002745e-02 1.0491502090848424e-01  0.0000000000000000e+00 1.9957219030214142e-02 1.0330092417092750e-01  0.0000000000000000e+00 2.0111003741096482e-02 1.0169584097860357e-01  0.0000000000000000e+00 2.0268206367768465e-02 1.0010846476798180e-01  0.0000000000000000e+00 2.0428398358984554e-02 9.8541844695041222e-02  0.0000000000000000e+00 2.0590523848846704e-02 9.7006164418332319e-02  0.0000000000000000e+00 2.0756265970747395e-02 9.5486254203025506e-02  0.0000000000000000e+00 2.0924419532481787e-02 9.3994359048071963e-02  0.0000000000000000e+00 2.1094460880939202e-02 9.2529317446756604e-02  0.0000000000000000e+00 2.1267532202535487e-02 9.1090180684937447e-02  0.0000000000000000e+00 2.1443031907716216e-02 8.9673304623765590e-02  0.0000000000000000e+00 2.1620994654777612e-02 8.8283865120486610e-02  0.0000000000000000e+00 2.1801408249787001e-02 8.6919070504367701e-02  0.0000000000000000e+00 2.1984585763549207e-02 8.5577677122486026e-02  0.0000000000000000e+00 2.2169966733097558e-02 8.4262481655871593e-02  0.0000000000000000e+00 2.2549075512162394e-02 8.1700208529118148e-02  0.0000000000000000e+00 2.2742099843304182e-02 8.0456191035442839e-02  0.0000000000000000e+00 2.2938230438532464e-02 7.9232680300193384e-02  0.0000000000000000e+00 2.3136220496821708e-02 7.8035349638646626e-02  0.0000000000000000e+00 2.3336275508254695e-02 7.6863242691853198e-02  0.0000000000000000e+00 2.3538198296613435e-02 7.5716159667130883e-02  0.0000000000000000e+00 2.3741728774616517e-02 7.4595050438817964e-02  0.0000000000000000e+00 2.3946330652664098e-02 7.3501341178639712e-02  0.0000000000000000e+00 2.4151837689474345e-02 7.2435130020035224e-02  0.0000000000000000e+00 2.4357792354174491e-02 7.1397096682274744e-02  0.0000000000000000e+00 2.4563894770142782e-02 7.0388306421927033e-02  0.0000000000000000e+00 2.4768714293089550e-02 6.9412614160037064e-02  0.0000000000000000e+00 2.4973881140383559e-02 6.8462115851893560e-02  0.0000000000000000e+00 2.5178196327409780e-02 6.7540613428370380e-02  0.0000000000000000e+00 2.5379964043463349e-02 6.6653912352298894e-02  0.0000000000000000e+00 2.5582861229308699e-02 6.5785225725575186e-02  0.0000000000000000e+00 2.5783725316516258e-02 6.4946582404460676e-02  0.0000000000000000e+00 2.5979774426035464e-02 6.4147253146288066e-02  0.0000000000000000e+00 2.6175220245707270e-02 6.3370503446034274e-02  0.0000000000000000e+00 2.6367882769714360e-02 6.2621156811967740e-02  0.0000000000000000e+00 2.6558556455652260e-02 6.1896957700188986e-02  0.0000000000000000e+00 2.6746732433348044e-02 6.1198040703257552e-02  0.0000000000000000e+00 2.6932666255712879e-02 6.0522210799849006e-02  0.0000000000000000e+00 2.7116628473573698e-02 5.9867993520783008e-02  0.0000000000000000e+00 2.7296197712488948e-02 5.9242626064444484e-02  0.0000000000000000e+00 2.7473833347696566e-02 5.8636613466434950e-02  0.0000000000000000e+00 2.7649730535682353e-02 5.8048363285345468e-02  0.0000000000000000e+00 2.7820534672691632e-02 5.7488383813843427e-02  0.0000000000000000e+00 2.7990491108495597e-02 5.6941972569242529e-02  0.0000000000000000e+00 2.8157241674243903e-02 5.6415553980486248e-02  0.0000000000000000e+00 2.8320547113746694e-02 5.5909604663670349e-02  0.0000000000000000e+00 2.8481048523117163e-02 5.5421114083611743e-02  0.0000000000000000e+00 2.8638454832912951e-02 5.4950361380084273e-02  0.0000000000000000e+00 2.8793528157043211e-02 5.4494523786840970e-02  0.0000000000000000e+00 2.8947009791553232e-02 5.4050737974493869e-02  0.0000000000000000e+00 2.9094297815769526e-02 5.3631755848300815e-02  0.0000000000000000e+00 2.9238029898027713e-02 5.3229366148263298e-02  0.0000000000000000e+00 2.9382815570713410e-02 5.2830002802151339e-02  0.0000000000000000e+00 2.9522001738683731e-02 5.2451913197874497e-02  0.0000000000000000e+00 2.9656411251955950e-02 5.2092163847536101e-02  0.0000000000000000e+00 2.9788931908847724e-02 5.1742233081808288e-02  0.0000000000000000e+00 2.9917481710667479e-02 5.1407299862982099e-02  0.0000000000000000e+00 3.0044347966403904e-02 5.1081189896202660e-02  0.0000000000000000e+00 3.0164526536115496e-02 5.0775957702878231e-02  0.0000000000000000e+00 3.0283716046141128e-02 5.0477093279855431e-02  0.0000000000000000e+00 3.0398245376163265e-02 5.0193182905388600e-02  0.0000000000000000e+00 3.0509935841563779e-02 4.9919296015969061e-02  0.0000000000000000e+00 3.0619401973017778e-02 4.9653826458947233e-02  0.0000000000000000e+00 3.0722567450250125e-02 4.9406586243803598e-02  0.0000000000000000e+00 3.0821543196821264e-02 4.9171518438891157e-02  0.0000000000000000e+00 3.0920048713894002e-02 4.8939720760148187e-02  0.0000000000000000e+00 3.1013021450395528e-02 4.8723065104472073e-02  0.0000000000000000e+00 3.1101163318279949e-02 4.8519574999489855e-02  0.0000000000000000e+00 3.1186510850718441e-02 4.8324008453841466e-02  0.0000000000000000e+00 3.1268585923403806e-02 4.8137456559576526e-02  0.0000000000000000e+00 3.1345195452728181e-02 4.7964641125156186e-02  0.0000000000000000e+00 2.9947267516695381e-02 5.1330856068917380e-02  0.0000000000000000e+00 1.9863097445963929e-02 1.0430907199169848e-01  0.0000000000000000e+00 3.1240715647845335e-02 4.8201274660365723e-02  0.0000000000000000e+00 2.2260374429475708e-02 8.3636975773577593e-02  0.0000000000000000e+00 3.1339758485817097e-02 4.7977338662712213e-02  0.0000000000000000e+00 1.8356427768353691e-02 1.2394832743034138e-01  0.0000000000000000e+00 2.9436853070214968e-02 5.2684134327392690e-02  0.0000000000000000e+00 2.6565244740104417e-02 6.1872630993346729e-02  0.0000000000000000e+00 1.7462840046065027e-02 1.4035610909243762e-01  0.0000000000000000e+00 2.0280403942696208e-02 9.9990299744677921e-02  0.0000000000000000e+00 2.8686359041450577e-02 5.4809202158430777e-02  0.0000000000000000e+00 1.8494850428390996e-02 1.2179831472513786e-01  0.0000000000000000e+00 1.9458978453556632e-02 1.0888486735174605e-01  0.0000000000000000e+00 2.7716438339826559e-02 5.7828818436330254e-02  0.0000000000000000e+00 2.1573491370092970e-02 8.8653558256860623e-02  0.0000000000000000e+00 3.1705624289280802e-02 4.7168599793653197e-02  0.0000000000000000e+00 1.7898995962665695e-02 1.3173404984341544e-01  0.0000000000000000e+00 1.7527862175840823e-02 1.3898409501491724e-01  0.0000000000000000e+00 3.1935508349332738e-02 4.6674017536921707e-02  0.0000000000000000e+00 2.6456283066236628e-02 6.2283882009037166e-02  0.0000000000000000e+00 2.2825005072154445e-02 7.9937433971095331e-02  0.0000000000000000e+00 2.5060754969261387e-02 6.8067210296177336e-02  0.0000000000000000e+00 3.1943947589055763e-02 4.6656174989169373e-02  0.0000000000000000e+00 1.7371872218828695e-02 1.4233260805424608e-01  0.0000000000000000e+00 2.4182795139978334e-02 7.2279848901674756e-02  0.0000000000000000e+00 2.4034842146625466e-02 7.3038935280409917e-02  0.0000000000000000e+00 3.1824380341311700e-02 4.6911891533077059e-02  0.0000000000000000e+00 3.0631126432923438e-02 4.9626138617583866e-02  0.0000000000000000e+00 2.0842553747904672e-02 9.4715607676015126e-02  0.0000000000000000e+00 1.7857253872158762e-02 1.3250518546930812e-01  0.0000000000000000e+00 2.8293405573458302e-02 5.5994680699339106e-02  0.0000000000000000e+00 3.0568597210148027e-02 4.9777913409249884e-02  0.0000000000000000e+00 1.7346750639036235e-02 1.4289123332408671e-01  0.0000000000000000e+00 2.5145620545639878e-02 6.7688413221898905e-02  0.0000000000000000e+00 2.3228024025985287e-02 7.7493481807856923e-02  0.0000000000000000e+00 3.1655830792650552e-02 4.7277034994602445e-02  0.0000000000000000e+00 1.8924774582098385e-02 1.1564095726038620e-01  0.0000000000000000e+00 1.9187154880400303e-02 1.1220883766839544e-01  0.0000000000000000e+00 3.1017855190122803e-02 4.8712469277673871e-02  0.0000000000000000e+00 2.9414494395515033e-02 5.2743695688479787e-02  0.0000000000000000e+00 2.1549717614359899e-02 8.8835407513684628e-02  0.0000000000000000e+00 1.7627099817641385e-02 1.3695178600692223e-01  0.0000000000000000e+00 2.7477747250303410e-02 5.8625731437044658e-02  0.0000000000000000e+00 3.1823381817018243e-02 4.6914187963333159e-02  0.0000000000000000e+00 2.8879098873973358e-02 5.4247808364179320e-02  0.0000000000000000e+00 1.7382749131549278e-02 1.4209379065012082e-01  0.0000000000000000e+00 1.8083918974031846e-02 1.2845005495891673e-01  0.0000000000000000e+00 2.5865121674556703e-02 6.4614485458416512e-02  0.0000000000000000e+00 2.0807599580611135e-02 9.5028799251193521e-02  0.0000000000000000e+00 3.0304049100217736e-02 5.0427030509567025e-02  0.0000000000000000e+00 3.0912021778702035e-02 4.8959319238816995e-02  0.0000000000000000e+00 2.7189471973532910e-02 5.9613148527594313e-02  0.0000000000000000e+00 1.7717360694221442e-02 1.3516515162854348e-01  0.0000000000000000e+00 2.5877577715598621e-02 6.4561872183475338e-02  0.0000000000000000e+00 2.0352544672869573e-02 9.9278743553297757e-02  0.0000000000000000e+00 3.0102370477517466e-02 5.0934308399223062e-02  0.0000000000