<?xml version="1.0"?>
<VTKFile type="UnstructuredGrid"  version="0.1"  >
<UnstructuredGrid>
<Piece  NumberOfPoints="4940" NumberOfCells="9650">
<Points>
<DataArray  type="Float64"  NumberOfComponents="3"  format="ascii">500 250 0  0 250 0  250 500 0  250 0 0  256.8885856082646 499.9050767557906 0  263.7719401218049 499.6203791065173 0  270.6448364229772 499.1461232471188 0  277.5020553257866 498.4826693209355 0  284.3383895508592 497.6305211460281 0  291.1486476865662 496.5903258312597 0  297.9276581259182 495.3628732847843 0  304.6702729675493 493.9490956196674 0  311.3713719748657 492.3500664368026 0  318.0258664141369 490.5670000199653 0  324.6287029687753 488.6012504015818 0  331.1748675330201 486.4543103455647 0  337.6593890460416 484.1278102064655 0  344.0773432429536 481.6235166997244 0  350.4238564271474 478.9433315480048 0  356.694109139292 476.0892900492477 0  362.88333985546 473.0635595140469 0  368.9868485575419 469.8684376402048 0  375.0000003153078 466.5063507640667 0  380.9182288257928 462.9798520074548 0  386.7370398729688 459.2916193419558 0  392.4520147244077 455.444453565817 0  398.0588135356345 451.4412761437442 0  403.5531785622926 447.285127045646 0  408.9309374414144 442.9791624087773 0  414.1880064015299 438.5266521049243 0  419.3203932989752 433.9309773069245 0  424.324200661095 429.1956279150535 0  429.1956286596235 424.3241998957182 0  433.9309780058756 419.3203925397119 0  438.5266527445345 414.1880056671062 0  442.9791630130591 408.9309367076756 0  447.2851276060475 403.5531778422888 0  451.4412766621026 398.0588128303826 0  455.4444540361634 392.4520140460735 0  459.2916197786263 386.7370392045948 0  462.9798524073514 380.9182281752347 0  466.5063511234856 374.9999996927758 0  469.8684379657123 368.9868479560565 0  473.0635598144817 362.8833392617846 0  476.0892903190255 356.6941085676214 0  478.9433317963513 350.4238558609745 0  481.6235169154735 344.0773427117675 0  484.12781039012 337.6593885555221 0  486.4543105028062 331.1748670749914 0  488.601250531677 324.6287025528375 0  490.5670001317469 318.0258660188321 0  492.3500665291326 311.3713716102628 0  493.949095695951 304.6702726271575 0  495.3628733416623 297.9276578347343 0  496.5903258712341 291.1486474470129 0  497.6305211749058 284.3383893426084 0  498.4826693388848 277.502055163614 0  499.1461232580606 270.6448362909296 0  499.6203791109319 263.7719400417897 0  499.9050767571306 256.8885855596534 0  499.9050767559877 243.1114143988867 0  499.6203791069493 236.2280598860241 0  499.1461232485393 229.3551635941651 0  498.4826693235677 222.4979446979962 0  497.6305211491849 215.6616104719064 0  496.5903258357701 208.8513523404629 0  495.3628732906988 202.0723419043604 0  493.9490956264813 195.3297270628552 0  492.3500664487791 188.6286280724281 0  490.5670000344809 181.9741336371959 0  488.6012504175981 175.3712970824318 0  486.4543103623226 168.8251325157939 0  484.1278102222298 162.3406109960628 0  481.6235167152198 155.9226567951971 0  478.9433315621651 149.5761436051346 0  476.0892900516498 143.3058908657982 0  473.063559513628 137.1166601437124 0  469.8684376406648 131.0131514433083 0  466.5063507675389 124.9999996907064 0  462.9798520124137 119.0817711822745 0  459.2916193464549 113.2629601339176 0  455.4444535642773 107.5479852733717 0  451.4412761528674 101.9411864767781 0  447.2851270583545 96.44682145403524 0  442.9791624165781 91.06906256805769 0  438.5266521117469 85.81199360630404 0  433.9309773156125 80.67960671046254 0  429.1956279150353 75.67579933888632 0  424.3241998888952 70.80437133373906 0  419.3203925223282 66.06902197812161 0  414.1880056411937 61.47334723289828 0  408.9309366751728 57.0208369601728 0  403.5531778009394 52.71487236176898 0  398.058812796452 48.55872331295853 0  392.4520140187753 44.55554594490843 0  386.7370391799677 40.70838020528396 0  380.9182281475119 37.02014757560744 0  374.9999996718656 33.49364886444181 0  368.9868479340393 30.13156202237255 0  362.8833392380029 26.93644017348339 0  356.6941085456942 23.91070967062674 0  350.4238558420009 21.0566681953261 0  344.0773426899492 18.37648307566465 0  337.6593885328982 15.87218960140942 0  331.1748670549786 13.54568949032341 0  324.6287025315056 11.39874946165088 0  318.0258660010876 9.432999863235466 0  311.3713716017894 7.649933468721599 0  304.6702726190621 6.050904302234756 0  297.9276578269805 4.637126656823085 0  291.148647441857 3.409674127905504 0  284.3383893425031 2.369478825079682 0  277.502055159398 1.517330660648639 0  270.6448362875833 0.853876741662134 0  263.7719400401456 0.3796208889774277 0  256.8885855592052 0.09492324285704967 0  243.1114143979462 0.09492324403817065 0  236.2280598850882 0.3796208931023841 0  229.3551635938215 0.8538767514891958 0  222.4979446968584 1.517330676558146 0  215.6616104703111 2.369478851036291 0  208.8513523382973 3.409674164591252 0  202.0723419066374 4.637126708856528 0  195.3297270659513 6.050904372824903 0  188.628628074828 7.649933550613184 0  181.9741336377093 9.432999965373938 0  175.3712970793675 11.39874958336037 0  168.8251325057572 13.54568964112298 0  162.340610986655 15.87218978129263 0  155.9226567874317 18.37648328793418 0  149.576143602509 21.05666843898663 0  143.3058908718157 23.91070994551046 0  137.1166601505524 26.93644048291054 0  131.0131514451933 30.13156235831508 0  124.9999996848412 33.49364923584736 0  119.0817711715717 37.0201479941652 0  113.2629601211624 40.70838066187849 0  107.5479852622251 44.55554644345162 0  101.9411864693332 48.55872385260452 0  96.44682143286516 52.71487295812284 0  91.06906254351222 57.02083760363669 0  85.81199358272519 61.4733479087879 0  80.67960667988106 66.06902271253972 0  75.67579930062769 70.80437212218331 0  70.80437129287643 75.67580015310926 0  66.06902193673014 80.67960752263491 0  61.47334718684866 85.81199441168215 0  57.02083692524275 91.0690633672404 0  52.71487232786438 96.44682224262129 0  48.55872328070024 101.941187247437 0  44.55554591578033 107.5479860232332 0  40.7083801742321 113.2629608675606 0  37.02014754791168 119.0817718975441 0  33.49364883372994 125.000000381329 0  30.13156199866361 131.0131521097709 0  26.9364401549829 137.1166607985551 0  23.91070965524918 143.3058914868915 0  21.05666818346614 149.576144185037 0  18.37648306853811 155.9226573275967 0  15.8721895918909 162.3406114925245 0  13.54568948170046 168.8251329701392 0  11.39874945301878 175.3712974960928 0  9.432999857087736 181.9741340206533 0  7.649933466342702 188.6286284076045 0  6.050904301250966 195.3297273853278 0  4.637126656808988 202.0723421730917 0  3.409674127767772 208.8513525589684 0  2.369478824521138 215.6616106615248 0  1.517330660909465 222.4979448382452 0  0.8538767414496533 229.355163714981 0  0.3796208887135322 236.2280599646376 0  0.09492324266324204 243.1114144478261 0  0.0949232442452228 256.8885856095658 0  0.3796208935834784 263.7719401236316 0  0.8538767530323526 270.6448364248016 0  1.517330679476544 277.5020553295092 0  2.369478854618649 284.3383895555228 0  3.409674170191892 291.1486476952655 0  4.6371267162381 297.9276581311522 0  6.050904381420935 304.6702729724059 0  7.649933562385399 311.3713719716595 0  9.43299997979841 318.0258664133013 0  11.3987495994252 324.6287029719946 0  13.54568965885832 331.174867545904 0  15.87218979367188 337.6593890464085 0  18.37648329843151 344.0773432384132 0  21.05666844777872 350.423856417535 0  23.91070995156048 356.6941091410045 0  26.93644048988043 362.8833398632205 0  30.13156235982007 368.9868485575877 0  33.49364924138357 375.0000003247478 0  37.0201480006036 380.9182288389023 0  40.70838066758398 386.7370398875706 0  44.55554644477201 392.4520147396792 0  48.55872386086904 398.0588135419111 0  52.71487295981296 403.5531785693063 0  57.02083760525949 408.9309374584583 0  61.47334790862246 414.1880064170849 0  66.06902271205095 419.320393319588 0  70.80437211216579 424.3242006890749 0  75.67580013809859 429.195628692521 0  80.6796075127923 433.930978054209 0  85.81199439754931 438.5266528008431 0  91.06906334717917 442.9791630582355 0  96.44682221438322 447.2851276501571 0  101.9411872243843 451.441276702356 0  107.5479859945825 455.4444540643537 0  113.2629608446994 459.2916198108319 0  119.0817718768376 462.9798524393601 0  125.0000003647644 466.5063511567065 0  131.0131521012763 469.8684379967393 0  137.1166607840049 473.0635598376539 0  143.3058914748804 476.0892903390826 0  149.5761441732679 478.9433318113714 0  155.9226573130112 481.6235169255377 0  162.3406114779862 484.1278104026658 0  168.8251329570439 486.4543105138039 0  175.3712974805475 488.601250542119 0  181.9741340135204 490.5670001408953 0  188.6286284005059 492.3500665318597 0  195.3297273788229 493.9490956972913 0  202.0723421640089 495.3628733414168 0  208.8513525529672 496.5903258712308 0  215.6616106544547 497.6305211744985 0  222.4979448327038 498.4826693384772 0  229.3551637102845 499.1461232581612 0  236.2280599621369 499.6203791111485 0  243.1114144470173 499.9050767573145 0  155.2373389820306 474.8197567317462 0  25.36256300907667 153.9152755065208 0  432.3709625126712 412.6214396304305 0  6.013151705810699 246.637913163471 0  246.6379131630491 493.986848294322 0  338.6995838441862 22.68244767887072 0  477.3175523131281 338.6995838660569 0  493.9868482700757 246.6379131399102 0  246.6201155078769 6.218451882810491 0  417.6179310263282 72.7156044707053 0  102.2232990934413 445.0100869616822 0  63.66330858966404 92.20354579482142 0  391.3105220491464 50.73522820883105 0  72.79295043967942 418.0702734974704 0  448.290574428537 108.25674339002 0  402.4604651193511 440.7462829841712 0  97.55317348421397 59.11376320116034 0  136.7376477664901 33.58246472647134 0  363.3288394375288 465.6947312928271 0  44.0678766556007 381.0860953771871 0  469.6905266180034 142.3890690100806 0  22.68244791668644 338.6995843487432 0  338.699584349159 477.317552078365 0  173.389488083762 18.6681884918202 0  483.4809734778481 179.7121987795732 0  13.50237455842738 306.4709525540879 0  305.9825168523021 487.24416992
[...]
<PointData  Vectors="f_12"> 
<DataArray  type="Float64"  Name="f_12"  NumberOfComponents="3" format="ascii">0.0000000000000000e+00 5.0767705961456994e-02 3.8206778040627826e-01  0.0000000000000000e+00 5.0121418793063865e-02 4.2339264320907749e-01  0.0000000000000000e+00 5.3663311301724095e-02 3.4200046450812688e-01  0.0000000000000000e+00 5.3817366079519209e-02 4.9938460588913575e-01  0.0000000000000000e+00 5.3706461690124878e-02 3.4160177804380121e-01  0.0000000000000000e+00 5.3744572460621927e-02 3.4125269795874325e-01  0.0000000000000000e+00 5.3780992693735021e-02 3.4092072578991472e-01  0.0000000000000000e+00 5.3812844723952133e-02 3.4063225780035672e-01  0.0000000000000000e+00 5.3841337871208060e-02 3.4037549886492080e-01  0.0000000000000000e+00 5.3866157136880338e-02 3.4015279982427943e-01  0.0000000000000000e+00 5.3887303816523020e-02 3.3996373037865502e-01  0.0000000000000000e+00 5.3905038339267325e-02 3.3980554306473715e-01  0.0000000000000000e+00 5.3918999111136026e-02 3.3968121722985023e-01  0.0000000000000000e+00 5.3928897766054536e-02 3.3959315834570181e-01  0.0000000000000000e+00 5.3932523695289780e-02 3.3956137391032115e-01  0.0000000000000000e+00 5.3936917893381467e-02 3.3952145324170496e-01  0.0000000000000000e+00 5.3931051794437794e-02 3.3957397085682584e-01  0.0000000000000000e+00 5.3924984658349523e-02 3.3962722060731643e-01  0.0000000000000000e+00 5.3913955717860292e-02 3.3972478209736778e-01  0.0000000000000000e+00 5.3899151549282390e-02 3.3985603431590039e-01  0.0000000000000000e+00 5.3880916620477358e-02 3.4001799748075168e-01  0.0000000000000000e+00 5.3856459622839699e-02 3.4023682458268623e-01  0.0000000000000000e+00 5.3827652017177617e-02 3.4049570338889262e-01  0.0000000000000000e+00 5.3797109143437383e-02 3.4077088018050133e-01  0.0000000000000000e+00 5.3762127839836020e-02 3.4108801240955211e-01  0.0000000000000000e+00 5.3721723502216323e-02 3.4145726611067145e-01  0.0000000000000000e+00 5.3675647335977870e-02 3.4188196168727364e-01  0.0000000000000000e+00 5.3628236768735453e-02 3.4232176035682971e-01  0.0000000000000000e+00 5.3577058236843347e-02 3.4280073401397920e-01  0.0000000000000000e+00 5.3519602643855767e-02 3.4334453121825564e-01  0.0000000000000000e+00 5.3460280691108718e-02 3.4391148558120294e-01  0.0000000000000000e+00 5.3396681539906218e-02 3.4452659322627505e-01  0.0000000000000000e+00 5.3329401715710455e-02 3.4518541541437725e-01  0.0000000000000000e+00 5.3259824860861803e-02 3.4587540888993717e-01  0.0000000000000000e+00 5.3184853880038470e-02 3.4663019881791834e-01  0.0000000000000000e+00 5.3107379227820370e-02 3.4742205877951043e-01  0.0000000000000000e+00 5.3028582796471095e-02 3.4823978164089464e-01  0.0000000000000000e+00 5.2945367546131300e-02 3.4911872224826579e-01  0.0000000000000000e+00 5.2858008776795792e-02 3.5005911829752839e-01  0.0000000000000000e+00 5.2769602057611976e-02 3.5102882193932339e-01  0.0000000000000000e+00 5.2680385021784813e-02 3.5202682639835109e-01  0.0000000000000000e+00 5.2587835152993576e-02 3.5308499739882537e-01  0.0000000000000000e+00 5.2492381529090047e-02 3.5420147624785986e-01  0.0000000000000000e+00 5.2396284025511088e-02 3.5535259457085278e-01  0.0000000000000000e+00 5.2298370570146489e-02 3.5655546004516919e-01  0.0000000000000000e+00 5.2199362457564180e-02 3.5780434329992228e-01  0.0000000000000000e+00 5.2099753698514564e-02 3.5909600286204280e-01  0.0000000000000000e+00 5.2000003125853747e-02 3.6042756492841688e-01  0.0000000000000000e+00 5.1898456796327222e-02 3.6182693862664900e-01  0.0000000000000000e+00 5.1797540011918074e-02 3.6326237498621611e-01  0.0000000000000000e+00 5.1697017946933134e-02 3.6474275124900779e-01  0.0000000000000000e+00 5.1596968557252737e-02 3.6626885210514404e-01  0.0000000000000000e+00 5.1497957703483567e-02 3.6783792793483561e-01  0.0000000000000000e+00 5.1399400393511256e-02 3.6946334066782233e-01  0.0000000000000000e+00 5.1302505044766786e-02 3.7112987681463105e-01  0.0000000000000000e+00 5.1207694180335619e-02 3.7283482651174166e-01  0.0000000000000000e+00 5.1114458529317980e-02 3.7459162183270578e-01  0.0000000000000000e+00 5.1023672844517774e-02 3.7639042805134515e-01  0.0000000000000000e+00 5.0935622585443333e-02 3.7822752451384173e-01  0.0000000000000000e+00 5.0850798488041908e-02 3.8008660215873719e-01  0.0000000000000000e+00 5.0688962790375366e-02 3.8401987226440260e-01  0.0000000000000000e+00 5.0614243140100837e-02 3.8602354519446558e-01  0.0000000000000000e+00 5.0543680853378854e-02 3.8806103920092355e-01  0.0000000000000000e+00 5.0476809928717288e-02 3.9015209595107997e-01  0.0000000000000000e+00 5.0414827037814129e-02 3.9227427568048184e-01  0.0000000000000000e+00 5.0357379558042696e-02 3.9443200666875139e-01  0.0000000000000000e+00 5.0305157923666556e-02 3.9662517257222007e-01  0.0000000000000000e+00 5.0258053965089033e-02 3.9885222802639547e-01  0.0000000000000000e+00 5.0216485189527121e-02 4.0110870136698146e-01  0.0000000000000000e+00 5.0180613109175425e-02 4.0339267844302074e-01  0.0000000000000000e+00 5.0150432635199312e-02 4.0571213510484966e-01  0.0000000000000000e+00 5.0126466383955237e-02 4.0804772196957245e-01  0.0000000000000000e+00 5.0108465176154630e-02 4.1041546160896902e-01  0.0000000000000000e+00 5.0096823171811543e-02 4.1280514030111787e-01  0.0000000000000000e+00 5.0091579532387763e-02 4.1521551376843974e-01  0.0000000000000000e+00 5.0092875174252378e-02 4.1764267438971137e-01  0.0000000000000000e+00 5.0100729614458189e-02 4.2008587397545538e-01  0.0000000000000000e+00 5.0115239963083973e-02 4.2254394872486550e-01  0.0000000000000000e+00 5.0136439629728323e-02 4.2501507908601627e-01  0.0000000000000000e+00 5.0164323931865658e-02 4.2749383901876797e-01  0.0000000000000000e+00 5.0198855590460792e-02 4.2998112280368384e-01  0.0000000000000000e+00 5.0240133385345311e-02 4.3246871889916427e-01  0.0000000000000000e+00 5.0288071511586638e-02 4.3496450242297519e-01  0.0000000000000000e+00 5.0342349101830573e-02 4.3745088560210010e-01  0.0000000000000000e+00 5.0403117398360030e-02 4.3993610786136972e-01  0.0000000000000000e+00 5.0470194918066001e-02 4.4241493676907018e-01  0.0000000000000000e+00 5.0543404069636505e-02 4.4488456178687963e-01  0.0000000000000000e+00 5.0622592435852459e-02 4.4734138087287961e-01  0.0000000000000000e+00 5.0707369375971770e-02 4.4977947186377942e-01  0.0000000000000000e+00 5.0797762241126969e-02 4.5220098851140228e-01  0.0000000000000000e+00 5.0893305030858267e-02 4.5459913581684558e-01  0.0000000000000000e+00 5.0993767976308925e-02 4.5697193016685195e-01  0.0000000000000000e+00 5.1099181672852809e-02 4.5932243701021064e-01  0.0000000000000000e+00 5.1208629439714805e-02 4.6163757000106559e-01  0.0000000000000000e+00 5.1321266480256138e-02 4.6390441316733394e-01  0.0000000000000000e+00 5.1438213357566050e-02 4.6614843384061933e-01  0.0000000000000000e+00 5.1558461853552694e-02 4.6835625857406071e-01  0.0000000000000000e+00 5.1680172972126640e-02 4.7049956262741316e-01  0.0000000000000000e+00 5.1805026380045312e-02 4.7261182343842162e-01  0.0000000000000000e+00 5.1932476024914159e-02 4.7468960741632182e-01  0.0000000000000000e+00 5.2059178043923578e-02 4.7668334097777043e-01  0.0000000000000000e+00 5.2187178735165506e-02 4.7862968652554444e-01  0.0000000000000000e+00 5.2315001037023169e-02 4.8051433379611735e-01  0.0000000000000000e+00 5.2442947468218523e-02 4.8234473813081274e-01  0.0000000000000000e+00 5.2569709931969334e-02 4.8410771693625637e-01  0.0000000000000000e+00 5.2695127651114101e-02 4.8580580478478569e-01  0.0000000000000000e+00 5.2818279729975062e-02 4.8743194042818705e-01  0.0000000000000000e+00 5.2938419907385008e-02 4.8898141769268011e-01  0.0000000000000000e+00 5.3055976057752217e-02 4.9046403108003550e-01  0.0000000000000000e+00 5.3170371386999274e-02 4.9187691721248428e-01  0.0000000000000000e+00 5.3280207817424284e-02 4.9320789552682398e-01  0.0000000000000000e+00 5.3384599920369265e-02 4.9444983254786290e-01  0.0000000000000000e+00 5.3483103766167724e-02 4.9560263158268364e-01  0.0000000000000000e+00 5.3576914163261241e-02 4.9668366901274019e-01  0.0000000000000000e+00 5.3663844236214890e-02 4.9767135359998294e-01  0.0000000000000000e+00 5.3744550739247873e-02 4.9857673187910129e-01  0.0000000000000000e+00 5.3879885759700839e-02 5.0007054711910848e-01  0.0000000000000000e+00 5.3947607310143697e-02 5.0080851236639412e-01  0.0000000000000000e+00 5.3992314731214269e-02 5.0129029124378544e-01  0.0000000000000000e+00 5.4034347550130105e-02 5.0174113120959751e-01  0.0000000000000000e+00 5.4068766298158238e-02 5.0210840651089828e-01  0.0000000000000000e+00 5.4093387784730787e-02 5.0237001921532809e-01  0.0000000000000000e+00 5.4108617506424227e-02 5.0253169180974877e-01  0.0000000000000000e+00 5.4116072639299739e-02 5.0261067505436918e-01  0.0000000000000000e+00 5.4114245648814591e-02 5.0259151472501518e-01  0.0000000000000000e+00 5.4109532497275591e-02 5.0254119064459479e-01  0.0000000000000000e+00 5.4087130236225446e-02 5.0230421334837105e-01  0.0000000000000000e+00 5.4058881406453103e-02 5.0200391840712244e-01  0.0000000000000000e+00 5.4022381660653436e-02 5.0161406145608978e-01  0.0000000000000000e+00 5.3980094432411113e-02 5.0115983340460668e-01  0.0000000000000000e+00 5.3928669450613358e-02 5.0060376163302955e-01  0.0000000000000000e+00 5.3867180683143071e-02 4.9993376364334513e-01  0.0000000000000000e+00 5.3799812533670124e-02 4.9919252678684478e-01  0.0000000000000000e+00 5.3725730219039584e-02 4.9836886869010094e-01  0.0000000000000000e+00 5.3645373870971312e-02 4.9746501405832949e-01  0.0000000000000000e+00 5.3558753119784912e-02 4.9647829837093305e-01  0.0000000000000000e+00 5.3465455719820448e-02 4.9540010244256988e-01  0.0000000000000000e+00 5.3366339444102344e-02 4.9423724132453439e-01  0.0000000000000000e+00 5.3263218551039673e-02 4.9300701028050103e-01  0.0000000000000000e+00 5.3156136784512642e-02 4.9170646110670790e-01  0.0000000000000000e+00 5.3044996194899739e-02 4.9033073410562844e-01  0.0000000000000000e+00 5.2930446601443693e-02 4.8888356579835957e-01  0.0000000000000000e+00 5.2812879880634912e-02 4.8736576311156510e-01  0.0000000000000000e+00 5.2693018765689430e-02 4.8578218649328475e-01  0.0000000000000000e+00 5.2571207817996200e-02 4.8413297128924704e-01  0.0000000000000000e+00 5.2448099146458427e-02 4.8242248839082003e-01  0.0000000000000000e+00 5.2324188065146805e-02 4.8065305215541032e-01  0.0000000000000000e+00 5.2200399791874727e-02 4.7883339371923977e-01  0.0000000000000000e+00 5.2077005496490032e-02 4.7696387221226949e-01  0.0000000000000000e+00 5.1954260470689198e-02 4.7504316869337510e-01  0.0000000000000000e+00 5.1832075271759405e-02 4.7306623255698571e-01  0.0000000000000000e+00 5.1711558458660212e-02 4.7104513333608855e-01  0.0000000000000000e+00 5.1593176309035156e-02 4.6898396454451324e-01  0.0000000000000000e+00 5.1477437062583870e-02 4.6688725066808556e-01  0.0000000000000000e+00 5.1364658786719947e-02 4.6475733323674773e-01  0.0000000000000000e+00 5.1255352458232060e-02 4.6260008218588938e-01  0.0000000000000000e+00 5.1148655442914852e-02 4.6039272313336632e-01  0.0000000000000000e+00 5.1046132850930091e-02 4.5816593673542394e-01  0.0000000000000000e+00 5.0948501900443970e-02 4.5592927476439699e-01  0.0000000000000000e+00 5.0854735595046566e-02 4.5365960421251161e-01  0.0000000000000000e+00 5.0765537269486162e-02 4.5136760571021822e-01  0.0000000000000000e+00 5.0681215530319054e-02 4.4905801877004559e-01  0.0000000000000000e+00 5.0602605033778586e-02 4.4675327254248659e-01  0.0000000000000000e+00 5.0528584490512368e-02 4.4441615255648448e-01  0.0000000000000000e+00 5.0460379110090825e-02 4.4207955143544764e-01  0.0000000000000000e+00 5.0397562436866772e-02 4.3973844570171888e-01  0.0000000000000000e+00 5.0340821987755163e-02 4.3739994683743855e-01  0.0000000000000000e+00 5.0289422149603531e-02 4.3505037508907923e-01  0.0000000000000000e+00 5.0243975216655523e-02 4.3270340852121214e-01  0.0000000000000000e+00 5.0204449789964321e-02 4.3036341808815187e-01  0.0000000000000000e+00 5.0170870873197292e-02 4.2803042375718325e-01  0.0000000000000000e+00 5.0143199024327685e-02 4.2570813828986637e-01  0.0000000000000000e+00 5.0105521123250292e-02 4.2108778219310861e-01  0.0000000000000000e+00 5.0095437187873737e-02 4.1880195754117178e-01  0.0000000000000000e+00 5.0091157598478951e-02 4.1653004746332639e-01  0.0000000000000000e+00 5.0092544736759871e-02 4.1427698321135520e-01  0.0000000000000000e+00 5.0099542346338677e-02 4.1204394659068849e-01  0.0000000000000000e+00 5.0112024242036542e-02 4.0983132899726810e-01  0.0000000000000000e+00 5.0129885457333642e-02 4.0764194279802035e-01  0.0000000000000000e+00 5.0152976670156231e-02 4.0547682052742007e-01  0.0000000000000000e+00 5.0181178694013610e-02 4.0333729542693486e-01  0.0000000000000000e+00 5.0214297061509497e-02 4.0122490811251793e-01  0.0000000000000000e+00 5.0252221656414450e-02 3.9914181955338385e-01  0.0000000000000000e+00 5.0294625132196964e-02 3.9709113387430683e-01  0.0000000000000000e+00 5.0341534930646928e-02 3.9506818549669015e-01  0.0000000000000000e+00 5.0392730719631192e-02 3.9307398293802009e-01  0.0000000000000000e+00 5.0447686697926951e-02 3.9112086278018604e-01  0.0000000000000000e+00 5.0506913418596748e-02 3.8918714130052501e-01  0.0000000000000000e+00 5.0569777206862822e-02 3.8728719453707944e-01  0.0000000000000000e+00 5.0635522518788896e-02 3.8543698395573645e-01  0.0000000000000000e+00 5.0704753467058855e-02 3.8361619492786703e-01  0.0000000000000000e+00 5.0776809308309460e-02 3.8183151328180376e-01  0.0000000000000000e+00 5.0851756296323242e-02 3.8008168889617072e-01  0.0000000000000000e+00 5.0929164259422566e-02 3.7836971697829258e-01  0.0000000000000000e+00 5.1008974792199464e-02 3.7669234105412136e-01  0.0000000000000000e+00 5.1091042142067368e-02 3.7504967522614041e-01  0.0000000000000000e+00 5.1174554858165154e-02 3.7345278313836883e-01  0.0000000000000000e+00 5.1259816561374204e-02 3.7189183421086608e-01  0.0000000000000000e+00 5.1346852671759771e-02 3.7036197969800599e-01  0.0000000000000000e+00 5.1434336271439889e-02 3.6888379347422262e-01  0.0000000000000000e+00 5.1523388854591720e-02 3.6743399632450108e-01  0.0000000000000000e+00 5.1613111542577882e-02 3.6602388027902555e-01  0.0000000000000000e+00 5.1703211204149120e-02 3.6465508155115228e-01  0.0000000000000000e+00 5.1793662923147750e-02 3.6332432539005882e-01  0.0000000000000000e+00 5.1884205975883516e-02 3.6203256286919894e-01  0.0000000000000000e+00 5.1974923521161495e-02 3.6077570161154515e-01  0.0000000000000000e+00 5.2065961574840010e-02 3.5954917478953169e-01  0.0000000000000000e+00 5.2155458615699375e-02 3.5837562658380534e-01  0.0000000000000000e+00 5.2244060994172226e-02 3.5724314509702598e-01  0.0000000000000000e+00 5.2333545815860430e-02 3.5612645919183988e-01  0.0000000000000000e+00 5.2421168180941148e-02 3.5505860953649843e-01  0.0000000000000000e+00 5.2507009144608881e-02 3.5403584491388862e-01  0.0000000000000000e+00 5.2592129159061127e-02 3.5304272214456162e-01  0.0000000000000000e+00 5.2675566415289851e-02 3.5208872557763998e-01  0.0000000000000000e+00 5.2758056646829837e-02 3.5116366576612540e-01  0.0000000000000000e+00 5.2837521058297469e-02 3.5028897653706331e-01  0.0000000000000000e+00 5.2916046816647945e-02 3.4943958822570909e-01  0.0000000000000000e+00 5.2992080396326718e-02 3.4863068409395814e-01  0.0000000000000000e+00 5.3066338088997966e-02 3.4785315227405073e-01  0.0000000000000000e+00 5.3138996245816097e-02 3.4710373613354395e-01  0.0000000000000000e+00 5.3207987174429851e-02 3.4640275298324374e-01  0.0000000000000000e+00 5.3274181409010628e-02 3.4573908392701785e-01  0.0000000000000000e+00 5.3339193822735505e-02 3.4509512335797221e-01  0.0000000000000000e+00 5.3400617310485961e-02 3.4449432300698757e-01  0.0000000000000000e+00 5.3458645749521194e-02 3.4393325303768163e-01  0.0000000000000000e+00 5.3514203984371955e-02 3.4340155999096827e-01  0.0000000000000000e+00 5.3566982069326384e-02 3.4290134212135348e-01  0.0000000000000000e+00 5.3615891278221431e-02 3.4244226558349061e-01  0.0000000000000000e+00 5.2704081296944302e-02 3.5177243050117574e-01  0.0000000000000000e+00 5.1008129156142328e-02 4.5731229064913081e-01  0.0000000000000000e+00 5.3201528411382128e-02 3.4646579691307550e-01  0.0000000000000000e+00 5.0131484470081783e-02 4.2453654606085672e-01  0.0000000000000000e+00 5.3619891721677290e-02 3.4240996464644102e-01  0.0000000000000000e+00 5.2363410775255602e-02 4.8121684155475031e-01  0.0000000000000000e+00 5.2037625297653156e-02 3.5992702854671466e-01  0.0000000000000000e+00 5.0723843637735612e-02 3.8312910729981819e-01  0.0000000000000000e+00 5.3823639400614645e-02 4.9945880913856278e-01  0.0000000000000000e+00 5.0749283257873153e-02 4.5092551203292341e-01  0.0000000000000000e+00 5.1918168490429621e-02 3.6156257491994909e-01  0.0000000000000000e+00 5.2248198534514206e-02 4.7954582979910748e-01  0.0000000000000000e+00 5.1270457539497494e-02 4.6289846572853843e-01  0.0000000000000000e+00 5.1386545058719743e-02 3.6968988286032700e-01  0.0000000000000000e+00 5.0263294175064442e-02 4.3371933967740939e-01  0.0000000000000000e+00 5.3586321816905570e-02 3.4271885780458627e-01  0.0000000000000000e+00 5.3087238119011101e-02 4.9086051475050158e-01  0.0000000000000000e+00 5.3739647774163533e-02 4.9852810195190161e-01  0.0000000000000000e+00 5.3845558325451723e-02 3.4033986691661011e-01  0.0000000000000000e+00 5.0815034272712507e-02 3.8093385340074137e-01  0.0000000000000000e+00 5.0096261411157091e-02 4.1893318160503995e-01  0.0000000000000000e+00 5.0364786082884992e-02 3.9414045487476301e-01  0.0000000000000000e+00 5.3908122691280945e-02 3.3978205545521467e-01  0.0000000000000000e+00 5.4041446407744373e-02 5.0182279174608058e-01  0.0000000000000000e+00 5.0161034154095639e-02 4.0484979206160082e-01  0.0000000000000000e+00 5.0165923181894480e-02 4.0445727817536836e-01  0.0000000000000000e+00 5.3888089638130125e-02 3.3996207660994010e-01  0.0000000000000000e+00 5.3157229063824557e-02 3.4692306173043058e-01  0.0000000000000000e+00 5.0491786918958143e-02 4.4318032796446899e-01  0.0000000000000000e+00 5.3092221712854770e-02 4.9091877825523950e-01  0.0000000000000000e+00 5.1439971691605420e-02 3.6879161079379880e-01  0.0000000000000000e+00 5.2727232494582679e-02 3.5150541150770770e-01  0.0000000000000000e+00 5.4079262059900990e-02 5.0222381793051663e-01  0.0000000000000000e+00 5.0325521020328376e-02 3.9574837201281310e-01  0.0000000000000000e+00 5.0095363205920500e-02 4.1318203372153572e-01  0.0000000000000000e+00 5.3806832184933165e-02 3.4069185659169055e-01  0.0000000000000000e+00 5.1729468358580166e-02 4.7134454556911870e-01  0.0000000000000000e+00 5.1526668987226340e-02 4.6779243643966839e-01  0.0000000000000000e+00 5.3412747924996715e-02 3.4438186248512087e-01  0.0000000000000000e+00 5.2362554781266855e-02 3.5577500285355890e-01  0.0000000000000000e+00 5.0260328493782640e-02 4.3358632110968526e-01  0.0000000000000000e+00 5.3498926166796329e-02 4.9579031905530480e-01  0.0000000000000000e+00 5.1072627274389368e-02 3.7541640484377858e-01  0.0000000000000000e+00 5.3713577464720531e-02 3.4153947318382594e-01  0.0000000000000000e+00 5.1735902921142364e-02 3.6417060920269684e-01  0.0000000000000000e+00 5.3994714012280461e-02 5.0131937029317430e-01  0.0000000000000000e+00 5.2737613906483724e-02 4.8637522330484168e-01  0.0000000000000000e+00 5.0505669290710785e-02 3.8923273267012864e-01  0.0000000000000000e+00 5.0507058169497444e-02 4.4368695144335007e-01  0.0000000000000000e+00 5.2939930759178862e-02 3.4919019425291170e-01  0.0000000000000000e+00 5.2965629385444551e-02 3.4890927164496688e-01  0.0000000000000000e+00 5.1130649380511928e-02 3.7428968363296639e-01  0.0000000000000000e+00 5.3393491936745009e-02 4.9456146044765786e-01  0.0000000000000000e+00 5.0603777661410117e-02 3.8631934880751617e-01  0.0000000000000000e+00 5.0719353532006593e-02 4.5012189440664291e-01  0.0000000000000000e+00 5.2430487020377711e-02 3.5494524104057512e-01  0.0000000000