<?xml version="1.0"?>
<VTKFile type="UnstructuredGrid"  version="0.1"  >
<UnstructuredGrid>
<Piece  NumberOfPoints="4940" NumberOfCells="9650">
<Points>
<DataArray  type="Float64"  NumberOfComponents="3"  format="ascii">500 250 0  0 250 0  250 500 0  250 0 0  256.8885856082646 499.9050767557906 0  263.7719401218049 499.6203791065173 0  270.6448364229772 499.1461232471188 0  277.5020553257866 498.4826693209355 0  284.3383895508592 497.6305211460281 0  291.1486476865662 496.5903258312597 0  297.9276581259182 495.3628732847843 0  304.6702729675493 493.9490956196674 0  311.3713719748657 492.3500664368026 0  318.0258664141369 490.5670000199653 0  324.6287029687753 488.6012504015818 0  331.1748675330201 486.4543103455647 0  337.6593890460416 484.1278102064655 0  344.0773432429536 481.6235166997244 0  350.4238564271474 478.9433315480048 0  356.694109139292 476.0892900492477 0  362.88333985546 473.0635595140469 0  368.9868485575419 469.8684376402048 0  375.0000003153078 466.5063507640667 0  380.9182288257928 462.9798520074548 0  386.7370398729688 459.2916193419558 0  392.4520147244077 455.444453565817 0  398.0588135356345 451.4412761437442 0  403.5531785622926 447.285127045646 0  408.9309374414144 442.9791624087773 0  414.1880064015299 438.5266521049243 0  419.3203932989752 433.9309773069245 0  424.324200661095 429.1956279150535 0  429.1956286596235 424.3241998957182 0  433.9309780058756 419.3203925397119 0  438.5266527445345 414.1880056671062 0  442.9791630130591 408.9309367076756 0  447.2851276060475 403.5531778422888 0  451.4412766621026 398.0588128303826 0  455.4444540361634 392.4520140460735 0  459.2916197786263 386.7370392045948 0  462.9798524073514 380.9182281752347 0  466.5063511234856 374.9999996927758 0  469.8684379657123 368.9868479560565 0  473.0635598144817 362.8833392617846 0  476.0892903190255 356.6941085676214 0  478.9433317963513 350.4238558609745 0  481.6235169154735 344.0773427117675 0  484.12781039012 337.6593885555221 0  486.4543105028062 331.1748670749914 0  488.601250531677 324.6287025528375 0  490.5670001317469 318.0258660188321 0  492.3500665291326 311.3713716102628 0  493.949095695951 304.6702726271575 0  495.3628733416623 297.9276578347343 0  496.5903258712341 291.1486474470129 0  497.6305211749058 284.3383893426084 0  498.4826693388848 277.502055163614 0  499.1461232580606 270.6448362909296 0  499.6203791109319 263.7719400417897 0  499.9050767571306 256.8885855596534 0  499.9050767559877 243.1114143988867 0  499.6203791069493 236.2280598860241 0  499.1461232485393 229.3551635941651 0  498.4826693235677 222.4979446979962 0  497.6305211491849 215.6616104719064 0  496.5903258357701 208.8513523404629 0  495.3628732906988 202.0723419043604 0  493.9490956264813 195.3297270628552 0  492.3500664487791 188.6286280724281 0  490.5670000344809 181.9741336371959 0  488.6012504175981 175.3712970824318 0  486.4543103623226 168.8251325157939 0  484.1278102222298 162.3406109960628 0  481.6235167152198 155.9226567951971 0  478.9433315621651 149.5761436051346 0  476.0892900516498 143.3058908657982 0  473.063559513628 137.1166601437124 0  469.8684376406648 131.0131514433083 0  466.5063507675389 124.9999996907064 0  462.9798520124137 119.0817711822745 0  459.2916193464549 113.2629601339176 0  455.4444535642773 107.5479852733717 0  451.4412761528674 101.9411864767781 0  447.2851270583545 96.44682145403524 0  442.9791624165781 91.06906256805769 0  438.5266521117469 85.81199360630404 0  433.9309773156125 80.67960671046254 0  429.1956279150353 75.67579933888632 0  424.3241998888952 70.80437133373906 0  419.3203925223282 66.06902197812161 0  414.1880056411937 61.47334723289828 0  408.9309366751728 57.0208369601728 0  403.5531778009394 52.71487236176898 0  398.058812796452 48.55872331295853 0  392.4520140187753 44.55554594490843 0  386.7370391799677 40.70838020528396 0  380.9182281475119 37.02014757560744 0  374.9999996718656 33.49364886444181 0  368.9868479340393 30.13156202237255 0  362.8833392380029 26.93644017348339 0  356.6941085456942 23.91070967062674 0  350.4238558420009 21.0566681953261 0  344.0773426899492 18.37648307566465 0  337.6593885328982 15.87218960140942 0  331.1748670549786 13.54568949032341 0  324.6287025315056 11.39874946165088 0  318.0258660010876 9.432999863235466 0  311.3713716017894 7.649933468721599 0  304.6702726190621 6.050904302234756 0  297.9276578269805 4.637126656823085 0  291.148647441857 3.409674127905504 0  284.3383893425031 2.369478825079682 0  277.502055159398 1.517330660648639 0  270.6448362875833 0.853876741662134 0  263.7719400401456 0.3796208889774277 0  256.8885855592052 0.09492324285704967 0  243.1114143979462 0.09492324403817065 0  236.2280598850882 0.3796208931023841 0  229.3551635938215 0.8538767514891958 0  222.4979446968584 1.517330676558146 0  215.6616104703111 2.369478851036291 0  208.8513523382973 3.409674164591252 0  202.0723419066374 4.637126708856528 0  195.3297270659513 6.050904372824903 0  188.628628074828 7.649933550613184 0  181.9741336377093 9.432999965373938 0  175.3712970793675 11.39874958336037 0  168.8251325057572 13.54568964112298 0  162.340610986655 15.87218978129263 0  155.9226567874317 18.37648328793418 0  149.576143602509 21.05666843898663 0  143.3058908718157 23.91070994551046 0  137.1166601505524 26.93644048291054 0  131.0131514451933 30.13156235831508 0  124.9999996848412 33.49364923584736 0  119.0817711715717 37.0201479941652 0  113.2629601211624 40.70838066187849 0  107.5479852622251 44.55554644345162 0  101.9411864693332 48.55872385260452 0  96.44682143286516 52.71487295812284 0  91.06906254351222 57.02083760363669 0  85.81199358272519 61.4733479087879 0  80.67960667988106 66.06902271253972 0  75.67579930062769 70.80437212218331 0  70.80437129287643 75.67580015310926 0  66.06902193673014 80.67960752263491 0  61.47334718684866 85.81199441168215 0  57.02083692524275 91.0690633672404 0  52.71487232786438 96.44682224262129 0  48.55872328070024 101.941187247437 0  44.55554591578033 107.5479860232332 0  40.7083801742321 113.2629608675606 0  37.02014754791168 119.0817718975441 0  33.49364883372994 125.000000381329 0  30.13156199866361 131.0131521097709 0  26.9364401549829 137.1166607985551 0  23.91070965524918 143.3058914868915 0  21.05666818346614 149.576144185037 0  18.37648306853811 155.9226573275967 0  15.8721895918909 162.3406114925245 0  13.54568948170046 168.8251329701392 0  11.39874945301878 175.3712974960928 0  9.432999857087736 181.9741340206533 0  7.649933466342702 188.6286284076045 0  6.050904301250966 195.3297273853278 0  4.637126656808988 202.0723421730917 0  3.409674127767772 208.8513525589684 0  2.369478824521138 215.6616106615248 0  1.517330660909465 222.4979448382452 0  0.8538767414496533 229.355163714981 0  0.3796208887135322 236.2280599646376 0  0.09492324266324204 243.1114144478261 0  0.0949232442452228 256.8885856095658 0  0.3796208935834784 263.7719401236316 0  0.8538767530323526 270.6448364248016 0  1.517330679476544 277.5020553295092 0  2.369478854618649 284.3383895555228 0  3.409674170191892 291.1486476952655 0  4.6371267162381 297.9276581311522 0  6.050904381420935 304.6702729724059 0  7.649933562385399 311.3713719716595 0  9.43299997979841 318.0258664133013 0  11.3987495994252 324.6287029719946 0  13.54568965885832 331.174867545904 0  15.87218979367188 337.6593890464085 0  18.37648329843151 344.0773432384132 0  21.05666844777872 350.423856417535 0  23.91070995156048 356.6941091410045 0  26.93644048988043 362.8833398632205 0  30.13156235982007 368.9868485575877 0  33.49364924138357 375.0000003247478 0  37.0201480006036 380.9182288389023 0  40.70838066758398 386.7370398875706 0  44.55554644477201 392.4520147396792 0  48.55872386086904 398.0588135419111 0  52.71487295981296 403.5531785693063 0  57.02083760525949 408.9309374584583 0  61.47334790862246 414.1880064170849 0  66.06902271205095 419.320393319588 0  70.80437211216579 424.3242006890749 0  75.67580013809859 429.195628692521 0  80.6796075127923 433.930978054209 0  85.81199439754931 438.5266528008431 0  91.06906334717917 442.9791630582355 0  96.44682221438322 447.2851276501571 0  101.9411872243843 451.441276702356 0  107.5479859945825 455.4444540643537 0  113.2629608446994 459.2916198108319 0  119.0817718768376 462.9798524393601 0  125.0000003647644 466.5063511567065 0  131.0131521012763 469.8684379967393 0  137.1166607840049 473.0635598376539 0  143.3058914748804 476.0892903390826 0  149.5761441732679 478.9433318113714 0  155.9226573130112 481.6235169255377 0  162.3406114779862 484.1278104026658 0  168.8251329570439 486.4543105138039 0  175.3712974805475 488.601250542119 0  181.9741340135204 490.5670001408953 0  188.6286284005059 492.3500665318597 0  195.3297273788229 493.9490956972913 0  202.0723421640089 495.3628733414168 0  208.8513525529672 496.5903258712308 0  215.6616106544547 497.6305211744985 0  222.4979448327038 498.4826693384772 0  229.3551637102845 499.1461232581612 0  236.2280599621369 499.6203791111485 0  243.1114144470173 499.9050767573145 0  155.2373389820306 474.8197567317462 0  25.36256300907667 153.9152755065208 0  432.3709625126712 412.6214396304305 0  6.013151705810699 246.637913163471 0  246.6379131630491 493.986848294322 0  338.6995838441862 22.68244767887072 0  477.3175523131281 338.6995838660569 0  493.9868482700757 246.6379131399102 0  246.6201155078769 6.218451882810491 0  417.6179310263282 72.7156044707053 0  102.2232990934413 445.0100869616822 0  63.66330858966404 92.20354579482142 0  391.3105220491464 50.73522820883105 0  72.79295043967942 418.0702734974704 0  448.290574428537 108.25674339002 0  402.4604651193511 440.7462829841712 0  97.55317348421397 59.11376320116034 0  136.7376477664901 33.58246472647134 0  363.3288394375288 465.6947312928271 0  44.0678766556007 381.0860953771871 0  469.6905266180034 142.3890690100806 0  22.68244791668644 338.6995843487432 0  338.699584349159 477.317552078365 0  173.389488083762 18.6681884918202 0  483.4809734778481 179.7121987795732 0  13.50237455842738 306.4709525540879 0  305.9825168523021 487.24416992
[...]
<PointData  Vectors="f_12"> 
<DataArray  type="Float64"  Name="f_12"  NumberOfComponents="3" format="ascii">0.0000000000000000e+00 6.7542437696348034e-01 6.4451899440797000e-01  0.0000000000000000e+00 7.2384747275413275e-01 5.6074692536697834e-01  0.0000000000000000e+00 6.3308657649634514e-01 7.1385465326533015e-01  0.0000000000000000e+00 7.8913222495969704e-01 4.4047695317415192e-01  0.0000000000000000e+00 6.3242456831202709e-01 7.1490916262063786e-01  0.0000000000000000e+00 6.3182580480118133e-01 7.1586202511087282e-01  0.0000000000000000e+00 6.3122054329960353e-01 7.1682447727954113e-01  0.0000000000000000e+00 6.3066729116958675e-01 7.1770361084265466e-01  0.0000000000000000e+00 6.3014066496895038e-01 7.1853981285829327e-01  0.0000000000000000e+00 6.2964775787156135e-01 7.1932191106947652e-01  0.0000000000000000e+00 6.2918734030517665e-01 7.2005202104563237e-01  0.0000000000000000e+00 6.2875327214838106e-01 7.2073993291351912e-01  0.0000000000000000e+00 6.2835309652811377e-01 7.2137376170895151e-01  0.0000000000000000e+00 6.2799210175161080e-01 7.2194526518531021e-01  0.0000000000000000e+00 6.2771857710280921e-01 7.2237806181268460e-01  0.0000000000000000e+00 6.2738680273765268e-01 7.2290289310824141e-01  0.0000000000000000e+00 6.2722434581278996e-01 7.2315972152573249e-01  0.0000000000000000e+00 6.2702364500378061e-01 7.2347701638548845e-01  0.0000000000000000e+00 6.2688609575632714e-01 7.2369442078636093e-01  0.0000000000000000e+00 6.2678883361080073e-01 7.2384813566471373e-01  0.0000000000000000e+00 6.2672507393280574e-01 7.2394881508082043e-01  0.0000000000000000e+00 6.2675324776080010e-01 7.2390429943627776e-01  0.0000000000000000e+00 6.2683840883701791e-01 7.2376977925342201e-01  0.0000000000000000e+00 6.2692539892609511e-01 7.2363228479505270e-01  0.0000000000000000e+00 6.2707531984696485e-01 7.2339535044950276e-01  0.0000000000000000e+00 6.2730886091128590e-01 7.2302612164988633e-01  0.0000000000000000e+00 6.2763825162748010e-01 7.2250514577527025e-01  0.0000000000000000e+00 6.2796773283143403e-01 7.2198381687777158e-01  0.0000000000000000e+00 6.2835244491686482e-01 7.2137478026314727e-01  0.0000000000000000e+00 6.2885567577326251e-01 7.2057765025694109e-01  0.0000000000000000e+00 6.2937792585478292e-01 7.1974986775669170e-01  0.0000000000000000e+00 6.2997672353026757e-01 7.1879996209630281e-01  0.0000000000000000e+00 6.3064526586826730e-01 7.1773860556437874e-01  0.0000000000000000e+00 6.3135125446555374e-01 7.1661675224221677e-01  0.0000000000000000e+00 6.3217233331513567e-01 7.1531061148561992e-01  0.0000000000000000e+00 6.3304560620389549e-01 7.1391999113860571e-01  0.0000000000000000e+00 6.3394156024555970e-01 7.1249152569549112e-01  0.0000000000000000e+00 6.3494166515619332e-01 7.1089495311991180e-01  0.0000000000000000e+00 6.3604668261278718e-01 7.0912850431602248e-01  0.0000000000000000e+00 6.3718281614573935e-01 7.0730965183573058e-01  0.0000000000000000e+00 6.3834359368273008e-01 7.0544852208347730e-01  0.0000000000000000e+00 6.3960261777955563e-01 7.0342660810985680e-01  0.0000000000000000e+00 6.4095867102159876e-01 7.0124521553480690e-01  0.0000000000000000e+00 6.4235020885010963e-01 6.9900271419395799e-01  0.0000000000000000e+00 6.4381615837516515e-01 6.9663589889972621e-01  0.0000000000000000e+00 6.4534591239520656e-01 6.9416126115108434e-01  0.0000000000000000e+00 6.4692943681964010e-01 6.9159447545834596e-01  0.0000000000000000e+00 6.4855907966875526e-01 6.8894765084216447e-01  0.0000000000000000e+00 6.5029635166303468e-01 6.8611957675422786e-01  0.0000000000000000e+00 6.5207504857339549e-01 6.8321784856554790e-01  0.0000000000000000e+00 6.5390342559928161e-01 6.8022797710541150e-01  0.0000000000000000e+00 6.5579610134246102e-01 6.7712588516738070e-01  0.0000000000000000e+00 6.5773381282029464e-01 6.7394214213699544e-01  0.0000000000000000e+00 6.5975734221866356e-01 6.7060920469545560e-01  0.0000000000000000e+00 6.6182876521509593e-01 6.6718859258723473e-01  0.0000000000000000e+00 6.6394099274130780e-01 6.6369153023375926e-01  0.0000000000000000e+00 6.6612584219347004e-01 6.6006449795500399e-01  0.0000000000000000e+00 6.6836218073211506e-01 6.5634201402233261e-01  0.0000000000000000e+00 6.7064318057562267e-01 6.5253428320799123e-01  0.0000000000000000e+00 6.7292620811581005e-01 6.4871436326230714e-01  0.0000000000000000e+00 6.7784204550911709e-01 6.4044820603672448e-01  0.0000000000000000e+00 6.8031703276014943e-01 6.3626875254684101e-01  0.0000000000000000e+00 6.8281056663312834e-01 6.3204551258309039e-01  0.0000000000000000e+00 6.8538247444679268e-01 6.2767583941416139e-01  0.0000000000000000e+00 6.8797205607649059e-01 6.2326318284677151e-01  0.0000000000000000e+00 6.9058852277053873e-01 6.1879068126712977e-01  0.0000000000000000e+00 6.9321898986638653e-01 6.1428049693429954e-01  0.0000000000000000e+00 6.9586591862671865e-01 6.0972795327342821e-01  0.0000000000000000e+00 6.9851419958872252e-01 6.0515908279976038e-01  0.0000000000000000e+00 7.0115352102259532e-01 6.0059177562614585e-01  0.0000000000000000e+00 7.0380305055509085e-01 5.9599254873264440e-01  0.0000000000000000e+00 7.0642227395133994e-01 5.9143241913922751e-01  0.0000000000000000e+00 7.0903123855841887e-01 5.8687649992127067e-01  0.0000000000000000e+00 7.1162731487515396e-01 5.8232964325457148e-01  0.0000000000000000e+00 7.1420262071381913e-01 5.7780587731501654e-01  0.0000000000000000e+00 7.1674971084753680e-01 5.7331878762946542e-01  0.0000000000000000e+00 7.1927200355954302e-01 5.6886264691650901e-01  0.0000000000000000e+00 7.2176819050481755e-01 5.6444023303880586e-01  0.0000000000000000e+00 7.2424366123375139e-01 5.6004234120743646e-01  0.0000000000000000e+00 7.2669811775586923e-01 5.5566982424523836e-01  0.0000000000000000e+00 7.2912437204122493e-01 5.5133587891579117e-01  0.0000000000000000e+00 7.3153533303426677e-01 5.4701761253640624e-01  0.0000000000000000e+00 7.3392817736752702e-01 5.4272054816627602e-01  0.0000000000000000e+00 7.3629999907445742e-01 5.3845012861596009e-01  0.0000000000000000e+00 7.3865676431532878e-01 5.3419583411942240e-01  0.0000000000000000e+00 7.4099575988540478e-01 5.2996282982346288e-01  0.0000000000000000e+00 7.4331596277178047e-01 5.2575320933790981e-01  0.0000000000000000e+00 7.4561529010387284e-01 5.2157110961581699e-01  0.0000000000000000e+00 7.4789107694239754e-01 5.1742155651572586e-01  0.0000000000000000e+00 7.5014218074604300e-01 5.1330712985016569e-01  0.0000000000000000e+00 7.5236219308015950e-01 5.0923979425671428e-01  0.0000000000000000e+00 7.5454766446860688e-01 5.0522635231028923e-01  0.0000000000000000e+00 7.5669728496514876e-01 5.0126967388884924e-01  0.0000000000000000e+00 7.5880055979599403e-01 4.9738961448294822e-01  0.0000000000000000e+00 7.6084398749722981e-01 4.9361170215422046e-01  0.0000000000000000e+00 7.6284398877644288e-01 4.8990616247762497e-01  0.0000000000000000e+00 7.6478995800583327e-01 4.8629338834910280e-01  0.0000000000000000e+00 7.6665772550008027e-01 4.8281881502428226e-01  0.0000000000000000e+00 7.6847262553018436e-01 4.7943599078287913e-01  0.0000000000000000e+00 7.7023294246684249e-01 4.7614902442405066e-01  0.0000000000000000e+00 7.7189938023817706e-01 4.7303158872516293e-01  0.0000000000000000e+00 7.7350114384725344e-01 4.7003019422029779e-01  0.0000000000000000e+00 7.7503028750862379e-01 4.6716007109722241e-01  0.0000000000000000e+00 7.7649356669176628e-01 4.6440942153135217e-01  0.0000000000000000e+00 7.7788313879290394e-01 4.6179340765240667e-01  0.0000000000000000e+00 7.7920336945409474e-01 4.5930446228842314e-01  0.0000000000000000e+00 7.8045120763906362e-01 4.5694885712936534e-01  0.0000000000000000e+00 7.8162540513317580e-01 4.5472948612668684e-01  0.0000000000000000e+00 7.8273539397829672e-01 4.5262901367611214e-01  0.0000000000000000e+00 7.8378127431378131e-01 4.5064761045005419e-01  0.0000000000000000e+00 7.8475575252795393e-01 4.4879960111205253e-01  0.0000000000000000e+00 7.8565519670108885e-01 4.4709220439347602e-01  0.0000000000000000e+00 7.8648138042687377e-01 4.4552249570204783e-01  0.0000000000000000e+00 7.8724939855114107e-01 4.4406211546627283e-01  0.0000000000000000e+00 7.8794393965453713e-01 4.4274041294218669e-01  0.0000000000000000e+00 7.8857497794067721e-01 4.4153877285929749e-01  0.0000000000000000e+00 7.8959777509290230e-01 4.3958941739910878e-01  0.0000000000000000e+00 7.9010389893396427e-01 4.3862414844337627e-01  0.0000000000000000e+00 7.9041753824332261e-01 4.3802556018654037e-01  0.0000000000000000e+00 7.9070992723991940e-01 4.3746745201759235e-01  0.0000000000000000e+00 7.9094216357387126e-01 4.3702405014601259e-01  0.0000000000000000e+00 7.9109842043980683e-01 4.3672565298731297e-01  0.0000000000000000e+00 7.9118215308189177e-01 4.3656572727861820e-01  0.0000000000000000e+00 7.9120742394466748e-01 4.3651746129840918e-01  0.0000000000000000e+00 7.9116233907291789e-01 4.3660356775245679e-01  0.0000000000000000e+00 7.9109808769963830e-01 4.3672630564545406e-01  0.0000000000000000e+00 7.9089680435201171e-01 4.3711066625522366e-01  0.0000000000000000e+00 7.9065172807657569e-01 4.3757855294530545e-01  0.0000000000000000e+00 7.9034343867097190e-01 4.3816698532981452e-01  0.0000000000000000e+00 7.8998944298235829e-01 4.3884240783129469e-01  0.0000000000000000e+00 7.8956229675122347e-01 4.3965706908414270e-01  0.0000000000000000e+00 7.8905313421033474e-01 4.4062770092605175e-01  0.0000000000000000e+00 7.8849295639194772e-01 4.4169499290017589e-01  0.0000000000000000e+00 7.8787234362799174e-01 4.4287670605254337e-01  0.0000000000000000e+00 7.8719210793506778e-01 4.4417107396608319e-01  0.0000000000000000e+00 7.8644972874932262e-01 4.4558267015617481e-01  0.0000000000000000e+00 7.8563820992200406e-01 4.4712447014768603e-01  0.0000000000000000e+00 7.8476160801954642e-01 4.4878849303081914e-01  0.0000000000000000e+00 7.8383094772753403e-01 4.5055347343158503e-01  0.0000000000000000e+00 7.8284253803730675e-01 4.5242612356381251e-01  0.0000000000000000e+00 7.8179163190551748e-01 4.5441508084579740e-01  0.0000000000000000e+00 7.8067940391115598e-01 4.5651774613745261e-01  0.0000000000000000e+00 7.7950478308357340e-01 4.5873573623671526e-01  0.0000000000000000e+00 7.7826957365466976e-01 4.6106523319408771e-01  0.0000000000000000e+00 7.7697213588863501e-01 4.6350887474115793e-01  0.0000000000000000e+00 7.7561395609363515e-01 4.6606340822527698e-01  0.0000000000000000e+00 7.7419516264018295e-01 4.6872810133425014e-01  0.0000000000000000e+00 7.7272052458795049e-01 4.7149353815288597e-01  0.0000000000000000e+00 7.7118936654341619e-01 4.7436045946073957e-01  0.0000000000000000e+00 7.6959960885320666e-01 4.7733230454152509e-01  0.0000000000000000e+00 7.6794841123663182e-01 4.8041378463073803e-01  0.0000000000000000e+00 7.6624363467668488e-01 4.8358969122161555e-01  0.0000000000000000e+00 7.6448892020262627e-01 4.8685273812702939e-01  0.0000000000000000e+00 7.6268851533752835e-01 4.9019453989852857e-01  0.0000000000000000e+00 7.6084489218296136e-01 4.9360999435970465e-01  0.0000000000000000e+00 7.5896341023989955e-01 4.9708883343368943e-01  0.0000000000000000e+00 7.5703194936962026e-01 5.0065280287024438e-01  0.0000000000000000e+00 7.5507442897969190e-01 5.0425756257136767e-01  0.0000000000000000e+00 7.5309558002387966e-01 5.0789400782962424e-01  0.0000000000000000e+00 7.5108569043161533e-01 5.1157960685803472e-01  0.0000000000000000e+00 7.4905420837604053e-01 5.1529686166379107e-01  0.0000000000000000e+00 7.4700485208876877e-01 5.1903861788129313e-01  0.0000000000000000e+00 7.4494836568348999e-01 5.2278519609221918e-01  0.0000000000000000e+00 7.4287341680970642e-01 5.2655690091092178e-01  0.0000000000000000e+00 7.4078929451549913e-01 5.3033689478429924e-01  0.0000000000000000e+00 7.3870144551576644e-01 5.3411494559827988e-01  0.0000000000000000e+00 7.3660088830093784e-01 5.3790753246300849e-01  0.0000000000000000e+00 7.3449266546217651e-01 5.4170509873756756e-01  0.0000000000000000e+00 7.3238107301332867e-01 5.4550007384135157e-01  0.0000000000000000e+00 7.3026061288024979e-01 5.4930207800808095e-01  0.0000000000000000e+00 7.2812951324412101e-01 5.5311425629373867e-01  0.0000000000000000e+00 7.2599415810957790e-01 5.5692499988111877e-01  0.0000000000000000e+00 7.2169092695148152e-01 5.6457723158634698e-01  0.0000000000000000e+00 7.1952716946801576e-01 5.6841101718768905e-01  0.0000000000000000e+00 7.1734513922186061e-01 5.7226790431614727e-01  0.0000000000000000e+00 7.1515764528030734e-01 5.7612486073322633e-01  0.0000000000000000e+00 7.1296142102218907e-01 5.7998769970510677e-01  0.0000000000000000e+00 7.1075626466201391e-01 5.8385660517479288e-01  0.0000000000000000e+00 7.0854364685361793e-01 5.8772889833298048e-01  0.0000000000000000e+00 7.0632799876901575e-01 5.9159669986260199e-01  0.0000000000000000e+00 7.0411004837931956e-01 5.9545874913556129e-01  0.0000000000000000e+00 7.0189294986990092e-01 5.9930946841689203e-01  0.0000000000000000e+00 6.9968042253259766e-01 6.0314252326720241e-01  0.0000000000000000e+00 6.9748750539543947e-01 6.0693186035245472e-01  0.0000000000000000e+00 6.9529410220594012e-01 6.1071238638772329e-01  0.0000000000000000e+00 6.9311580174065224e-01 6.1445746269112989e-01  0.0000000000000000e+00 6.9097111504111874e-01 6.1813535284633403e-01  0.0000000000000000e+00 6.8881767235380453e-01 6.2181898774825084e-01  0.0000000000000000e+00 6.8669462422776972e-01 6.2544159951616407e-01  0.0000000000000000e+00 6.8463318624518421e-01 6.2895009210258279e-01  0.0000000000000000e+00 6.8258806788591253e-01 6.3242262443849606e-01  0.0000000000000000e+00 6.8058119919586912e-01 6.3582178480395846e-01  0.0000000000000000e+00 6.7860792581030616e-01 6.3915620709491905e-01  0.0000000000000000e+00 6.7667283855970140e-01 6.4241839566987169e-01  0.0000000000000000e+00 6.7477397035128650e-01 6.4561210102474453e-01  0.0000000000000000e+00 6.7290917807141504e-01 6.4874133972609804e-01  0.0000000000000000e+00 6.7110605091884779e-01 6.5176042625122488e-01  0.0000000000000000e+00 6.6933578121691428e-01 6.5471788249324636e-01  0.0000000000000000e+00 6.6759763101329206e-01 6.5761566351236533e-01  0.0000000000000000e+00 6.6592701516184394e-01 6.6039486184781215e-01  0.0000000000000000e+00 6.6427777318726522e-01 6.6313297060290588e-01  0.0000000000000000e+00 6.6267381094849243e-01 6.6579045082226329e-01  0.0000000000000000e+00 6.6111809547286104e-01 6.6836303476633407e-01  0.0000000000000000e+00 6.5960176246141644e-01 6.7086564095576495e-01  0.0000000000000000e+00 6.5812722904046783e-01 6.7329471333022073e-01  0.0000000000000000e+00 6.5668559584668607e-01 6.7566524982840770e-01  0.0000000000000000e+00 6.5526796585521341e-01 6.7799209175075470e-01  0.0000000000000000e+00 6.5392071122238471e-01 6.8019962799189293e-01  0.0000000000000000e+00 6.5261484303775996e-01 6.8233570280064471e-01  0.0000000000000000e+00 6.5130291987578359e-01 6.8447811337467379e-01  0.0000000000000000e+00 6.5005129155764418e-01 6.8651877259842697e-01  0.0000000000000000e+00 6.4884993768006716e-01 6.8847438419283780e-01  0.0000000000000000e+00 6.4766875446453054e-01 6.9039422005555240e-01  0.0000000000000000e+00 6.4652743725865114e-01 6.9224649414300721e-01  0.0000000000000000e+00 6.4540271996277632e-01 6.9406918779880022e-01  0.0000000000000000e+00 6.4434184923227655e-01 6.9578594269205263e-01  0.0000000000000000e+00 6.4328910707989728e-01 6.9748726759724911e-01  0.0000000000000000e+00 6.4227865490617353e-01 6.9911807306023988e-01  0.0000000000000000e+00 6.4129201534601454e-01 7.0070826251852891e-01  0.0000000000000000e+00 6.4032328012655071e-01 7.0226766469831392e-01  0.0000000000000000e+00 6.3941075117718804e-01 7.0373492075868760e-01  0.0000000000000000e+00 6.3853226000639407e-01 7.0514565024012765e-01  0.0000000000000000e+00 6.3765294517531546e-01 7.0655613008291518e-01  0.0000000000000000e+00 6.3682023689953093e-01 7.0789033308775884e-01  0.0000000000000000e+00 6.3602694044870511e-01 7.0916009664437918e-01  0.0000000000000000e+00 6.3525295098433576e-01 7.1039755202237054e-01  0.0000000000000000e+00 6.3450312386187457e-01 7.1159530299212048e-01  0.0000000000000000e+00 6.3379741333188844e-01 7.1272138927149087e-01  0.0000000000000000e+00 6.4629664893988081e-01 6.9262073558523418e-01  0.0000000000000000e+00 7.5435545053543251e-01 5.0557967688676575e-01  0.0000000000000000e+00 6.3220739262558434e-01 7.1525498419937761e-01  0.0000000000000000e+00 7.2498344886066735e-01 5.5872556059384648e-01  0.0000000000000000e+00 6.3385452426771094e-01 7.1263037516553029e-01  0.0000000000000000e+00 7.7559313167775057e-01 4.6610252545557745e-01  0.0000000000000000e+00 6.4814216438526973e-01 6.8962526430024307e-01  0.0000000000000000e+00 6.7687007108501951e-01 6.4208727809325572e-01  0.0000000000000000e+00 7.8915641370603162e-01 4.4043090265615009e-01  0.0000000000000000e+00 7.4899492801935519e-01 5.1540516856860585e-01  0.0000000000000000e+00 6.5770878626803175e-01 6.7398318604525398e-01  0.0000000000000000e+00 7.7331398425565034e-01 4.7038107950991259e-01  0.0000000000000000e+00 7.5996007434690860e-01 4.9524686466231199e-01  0.0000000000000000e+00 6.6697512362545797e-01 6.5865193967065716e-01  0.0000000000000000e+00 7.3279486610031197e-01 5.4475718186855671e-01  0.0000000000000000e+00 6.2856665582466731e-01 7.2103560820795243e-01  0.0000000000000000e+00 7.8220031633077314e-01 4.5364185518203815e-01  0.0000000000000000e+00 7.8799229069654964e-01 4.4264836585402012e-01  0.0000000000000000e+00 6.2721712204372471e-01 7.2317147092429068e-01  0.0000000000000000e+00 6.7969306376704319e-01 6.3732347634123965e-01  0.0000000000000000e+00 7.1815063922103983e-01 5.7084526413934766e-01  0.0000000000000000e+00 6.9439336817285213e-01 6.1226248414652940e-01  0.0000000000000000e+00 6.2754581211546012e-01 7.2265144670134285e-01  0.0000000000000000e+00 7.9051942883396753e-01 4.3783113296644965e-01  0.0000000000000000e+00 7.0292311311276945e-01 5.9752165936747781e-01  0.0000000000000000e+00 7.0540513244704195e-01 5.9320479909524082e-01  0.0000000000000000e+00 6.2905950471184269e-01 7.2025472001568402e-01  0.0000000000000000e+00 6.4025030856209075e-01 7.0238525189258361e-01  0.0000000000000000e+00 7.4182168933636983e-01 5.2846537547581429e-01  0.0000000000000000e+00 7.8306007393981591e-01 4.5201413405617308e-01  0.0000000000000000e+00 6.5909069058608249e-01 6.7170833512717454e-01  0.0000000000000000e+00 6.3792810544610234e-01 7.0611497457761507e-01  0.0000000000000000e+00 7.9096097094888307e-01 4.3698813066831932e-01  0.0000000000000000e+00 6.9228605575166835e-01 6.1588163895644910e-01  0.0000000000000000e+00 7.1417264210931508e-01 5.7785852230533152e-01  0.0000000000000000e+00 6.3082278286545224e-01 7.1745662886647710e-01  0.0000000000000000e+00 7.6739580225745507e-01 4.8144377513650827e-01  0.0000000000000000e+00 7.6349204514695934e-01 4.8870384085412855e-01  0.0000000000000000e+00 6.3679691362894286e-01 7.0792775355095194e-01  0.0000000000000000e+00 6.5105434828667763e-01 6.8488390500119978e-01  0.0000000000000000e+00 7.3324971686782237e-01 5.4394004158186327e-01  0.0000000000000000e+00 7.8659587237604944e-01 4.4530486464952135e-01  0.0000000000000000e+00 6.6730811019412584e-01 6.5809773284196127e-01  0.0000000000000000e+00 6.2782223445345442e-01 7.2221420233787903e-01  0.0000000000000000e+00 6.5340828102093318e-01 6.8103848810840306e-01  0.0000000000000000e+00 7.9040718019753187e-01 4.3804532150373854e-01  0.0000000000000000e+00 7.7963517805335802e-01 4.5848965378095263e-01  0.0000000000000000e+00 6.8442174420704038e-01 6.2931002874693154e-01  0.0000000000000000e+00 7.4224039200775471e-01 5.2770587326003493e-01  0.0000000000000000e+00 6.4314411994702259e-01 6.9772134263470609e-01  0.0000000000000000e+00 6.3498078978792305e-01 7.1083273482051446e-01  0.0000000000000000e+00 6.7221285455741553e-01 6.4990808439083925e-01  0.0000000000000000e+00 7.8500711583988847e-01 4.4832258127806085e-01  0.0000000000000000e+00 6.8573366462886765e-01 6.2707835993279293e-01  0.0000000000000000e+00 7.4799376365933434e-01 5.1723391429804721e-01  0.0000000000000000e+00 6.4206296991729106e-01 6.9946605187365740e-01  0.0000000000