<?xml version="1.0"?>
<VTKFile type="UnstructuredGrid"  version="0.1"  >
<UnstructuredGrid>
<Piece  NumberOfPoints="4940" NumberOfCells="9650">
<Points>
<DataArray  type="Float64"  NumberOfComponents="3"  format="ascii">500 250 0  0 250 0  250 500 0  250 0 0  256.8885856082646 499.9050767557906 0  263.7719401218049 499.6203791065173 0  270.6448364229772 499.1461232471188 0  277.5020553257866 498.4826693209355 0  284.3383895508592 497.6305211460281 0  291.1486476865662 496.5903258312597 0  297.9276581259182 495.3628732847843 0  304.6702729675493 493.9490956196674 0  311.3713719748657 492.3500664368026 0  318.0258664141369 490.5670000199653 0  324.6287029687753 488.6012504015818 0  331.1748675330201 486.4543103455647 0  337.6593890460416 484.1278102064655 0  344.0773432429536 481.6235166997244 0  350.4238564271474 478.9433315480048 0  356.694109139292 476.0892900492477 0  362.88333985546 473.0635595140469 0  368.9868485575419 469.8684376402048 0  375.0000003153078 466.5063507640667 0  380.9182288257928 462.9798520074548 0  386.7370398729688 459.2916193419558 0  392.4520147244077 455.444453565817 0  398.0588135356345 451.4412761437442 0  403.5531785622926 447.285127045646 0  408.9309374414144 442.9791624087773 0  414.1880064015299 438.5266521049243 0  419.3203932989752 433.9309773069245 0  424.324200661095 429.1956279150535 0  429.1956286596235 424.3241998957182 0  433.9309780058756 419.3203925397119 0  438.5266527445345 414.1880056671062 0  442.9791630130591 408.9309367076756 0  447.2851276060475 403.5531778422888 0  451.4412766621026 398.0588128303826 0  455.4444540361634 392.4520140460735 0  459.2916197786263 386.7370392045948 0  462.9798524073514 380.9182281752347 0  466.5063511234856 374.9999996927758 0  469.8684379657123 368.9868479560565 0  473.0635598144817 362.8833392617846 0  476.0892903190255 356.6941085676214 0  478.9433317963513 350.4238558609745 0  481.6235169154735 344.0773427117675 0  484.12781039012 337.6593885555221 0  486.4543105028062 331.1748670749914 0  488.601250531677 324.6287025528375 0  490.5670001317469 318.0258660188321 0  492.3500665291326 311.3713716102628 0  493.949095695951 304.6702726271575 0  495.3628733416623 297.9276578347343 0  496.5903258712341 291.1486474470129 0  497.6305211749058 284.3383893426084 0  498.4826693388848 277.502055163614 0  499.1461232580606 270.6448362909296 0  499.6203791109319 263.7719400417897 0  499.9050767571306 256.8885855596534 0  499.9050767559877 243.1114143988867 0  499.6203791069493 236.2280598860241 0  499.1461232485393 229.3551635941651 0  498.4826693235677 222.4979446979962 0  497.6305211491849 215.6616104719064 0  496.5903258357701 208.8513523404629 0  495.3628732906988 202.0723419043604 0  493.9490956264813 195.3297270628552 0  492.3500664487791 188.6286280724281 0  490.5670000344809 181.9741336371959 0  488.6012504175981 175.3712970824318 0  486.4543103623226 168.8251325157939 0  484.1278102222298 162.3406109960628 0  481.6235167152198 155.9226567951971 0  478.9433315621651 149.5761436051346 0  476.0892900516498 143.3058908657982 0  473.063559513628 137.1166601437124 0  469.8684376406648 131.0131514433083 0  466.5063507675389 124.9999996907064 0  462.9798520124137 119.0817711822745 0  459.2916193464549 113.2629601339176 0  455.4444535642773 107.5479852733717 0  451.4412761528674 101.9411864767781 0  447.2851270583545 96.44682145403524 0  442.9791624165781 91.06906256805769 0  438.5266521117469 85.81199360630404 0  433.9309773156125 80.67960671046254 0  429.1956279150353 75.67579933888632 0  424.3241998888952 70.80437133373906 0  419.3203925223282 66.06902197812161 0  414.1880056411937 61.47334723289828 0  408.9309366751728 57.0208369601728 0  403.5531778009394 52.71487236176898 0  398.058812796452 48.55872331295853 0  392.4520140187753 44.55554594490843 0  386.7370391799677 40.70838020528396 0  380.9182281475119 37.02014757560744 0  374.9999996718656 33.49364886444181 0  368.9868479340393 30.13156202237255 0  362.8833392380029 26.93644017348339 0  356.6941085456942 23.91070967062674 0  350.4238558420009 21.0566681953261 0  344.0773426899492 18.37648307566465 0  337.6593885328982 15.87218960140942 0  331.1748670549786 13.54568949032341 0  324.6287025315056 11.39874946165088 0  318.0258660010876 9.432999863235466 0  311.3713716017894 7.649933468721599 0  304.6702726190621 6.050904302234756 0  297.9276578269805 4.637126656823085 0  291.148647441857 3.409674127905504 0  284.3383893425031 2.369478825079682 0  277.502055159398 1.517330660648639 0  270.6448362875833 0.853876741662134 0  263.7719400401456 0.3796208889774277 0  256.8885855592052 0.09492324285704967 0  243.1114143979462 0.09492324403817065 0  236.2280598850882 0.3796208931023841 0  229.3551635938215 0.8538767514891958 0  222.4979446968584 1.517330676558146 0  215.6616104703111 2.369478851036291 0  208.8513523382973 3.409674164591252 0  202.0723419066374 4.637126708856528 0  195.3297270659513 6.050904372824903 0  188.628628074828 7.649933550613184 0  181.9741336377093 9.432999965373938 0  175.3712970793675 11.39874958336037 0  168.8251325057572 13.54568964112298 0  162.340610986655 15.87218978129263 0  155.9226567874317 18.37648328793418 0  149.576143602509 21.05666843898663 0  143.3058908718157 23.91070994551046 0  137.1166601505524 26.93644048291054 0  131.0131514451933 30.13156235831508 0  124.9999996848412 33.49364923584736 0  119.0817711715717 37.0201479941652 0  113.2629601211624 40.70838066187849 0  107.5479852622251 44.55554644345162 0  101.9411864693332 48.55872385260452 0  96.44682143286516 52.71487295812284 0  91.06906254351222 57.02083760363669 0  85.81199358272519 61.4733479087879 0  80.67960667988106 66.06902271253972 0  75.67579930062769 70.80437212218331 0  70.80437129287643 75.67580015310926 0  66.06902193673014 80.67960752263491 0  61.47334718684866 85.81199441168215 0  57.02083692524275 91.0690633672404 0  52.71487232786438 96.44682224262129 0  48.55872328070024 101.941187247437 0  44.55554591578033 107.5479860232332 0  40.7083801742321 113.2629608675606 0  37.02014754791168 119.0817718975441 0  33.49364883372994 125.000000381329 0  30.13156199866361 131.0131521097709 0  26.9364401549829 137.1166607985551 0  23.91070965524918 143.3058914868915 0  21.05666818346614 149.576144185037 0  18.37648306853811 155.9226573275967 0  15.8721895918909 162.3406114925245 0  13.54568948170046 168.8251329701392 0  11.39874945301878 175.3712974960928 0  9.432999857087736 181.9741340206533 0  7.649933466342702 188.6286284076045 0  6.050904301250966 195.3297273853278 0  4.637126656808988 202.0723421730917 0  3.409674127767772 208.8513525589684 0  2.369478824521138 215.6616106615248 0  1.517330660909465 222.4979448382452 0  0.8538767414496533 229.355163714981 0  0.3796208887135322 236.2280599646376 0  0.09492324266324204 243.1114144478261 0  0.0949232442452228 256.8885856095658 0  0.3796208935834784 263.7719401236316 0  0.8538767530323526 270.6448364248016 0  1.517330679476544 277.5020553295092 0  2.369478854618649 284.3383895555228 0  3.409674170191892 291.1486476952655 0  4.6371267162381 297.9276581311522 0  6.050904381420935 304.6702729724059 0  7.649933562385399 311.3713719716595 0  9.43299997979841 318.0258664133013 0  11.3987495994252 324.6287029719946 0  13.54568965885832 331.174867545904 0  15.87218979367188 337.6593890464085 0  18.37648329843151 344.0773432384132 0  21.05666844777872 350.423856417535 0  23.91070995156048 356.6941091410045 0  26.93644048988043 362.8833398632205 0  30.13156235982007 368.9868485575877 0  33.49364924138357 375.0000003247478 0  37.0201480006036 380.9182288389023 0  40.70838066758398 386.7370398875706 0  44.55554644477201 392.4520147396792 0  48.55872386086904 398.0588135419111 0  52.71487295981296 403.5531785693063 0  57.02083760525949 408.9309374584583 0  61.47334790862246 414.1880064170849 0  66.06902271205095 419.320393319588 0  70.80437211216579 424.3242006890749 0  75.67580013809859 429.195628692521 0  80.6796075127923 433.930978054209 0  85.81199439754931 438.5266528008431 0  91.06906334717917 442.9791630582355 0  96.44682221438322 447.2851276501571 0  101.9411872243843 451.441276702356 0  107.5479859945825 455.4444540643537 0  113.2629608446994 459.2916198108319 0  119.0817718768376 462.9798524393601 0  125.0000003647644 466.5063511567065 0  131.0131521012763 469.8684379967393 0  137.1166607840049 473.0635598376539 0  143.3058914748804 476.0892903390826 0  149.5761441732679 478.9433318113714 0  155.9226573130112 481.6235169255377 0  162.3406114779862 484.1278104026658 0  168.8251329570439 486.4543105138039 0  175.3712974805475 488.601250542119 0  181.9741340135204 490.5670001408953 0  188.6286284005059 492.3500665318597 0  195.3297273788229 493.9490956972913 0  202.0723421640089 495.3628733414168 0  208.8513525529672 496.5903258712308 0  215.6616106544547 497.6305211744985 0  222.4979448327038 498.4826693384772 0  229.3551637102845 499.1461232581612 0  236.2280599621369 499.6203791111485 0  243.1114144470173 499.9050767573145 0  155.2373389820306 474.8197567317462 0  25.36256300907667 153.9152755065208 0  432.3709625126712 412.6214396304305 0  6.013151705810699 246.637913163471 0  246.6379131630491 493.986848294322 0  338.6995838441862 22.68244767887072 0  477.3175523131281 338.6995838660569 0  493.9868482700757 246.6379131399102 0  246.6201155078769 6.218451882810491 0  417.6179310263282 72.7156044707053 0  102.2232990934413 445.0100869616822 0  63.66330858966404 92.20354579482142 0  391.3105220491464 50.73522820883105 0  72.79295043967942 418.0702734974704 0  448.290574428537 108.25674339002 0  402.4604651193511 440.7462829841712 0  97.55317348421397 59.11376320116034 0  136.7376477664901 33.58246472647134 0  363.3288394375288 465.6947312928271 0  44.0678766556007 381.0860953771871 0  469.6905266180034 142.3890690100806 0  22.68244791668644 338.6995843487432 0  338.699584349159 477.317552078365 0  173.389488083762 18.6681884918202 0  483.4809734778481 179.7121987795732 0  13.50237455842738 306.4709525540879 0  305.9825168523021 487.24416992
[...]
<PointData  Vectors="f_12"> 
<DataArray  type="Float64"  Name="f_12"  NumberOfComponents="3" format="ascii">0.0000000000000000e+00 2.3542987189148119e-02 9.5862080807312081e-02  0.0000000000000000e+00 1.9900377918945552e-02 1.2419186313656326e-01  0.0000000000000000e+00 2.7159960059568191e-02 7.8631234257413224e-02  0.0000000000000000e+00 1.5933357638241906e-02 1.9125126172272733e-01  0.0000000000000000e+00 2.7218250956075263e-02 7.8408797960364401e-02  0.0000000000000000e+00 2.7272300565805107e-02 7.8203782972535205e-02  0.0000000000000000e+00 2.7324787881561504e-02 7.8005785906619898e-02  0.0000000000000000e+00 2.7373491451567721e-02 7.7822985182296259e-02  0.0000000000000000e+00 2.7419299246629364e-02 7.7651931698255627e-02  0.0000000000000000e+00 2.7461962264755228e-02 7.7493302134401407e-02  0.0000000000000000e+00 2.7501446686416652e-02 7.7347111370497559e-02  0.0000000000000000e+00 2.7537880126978231e-02 7.7212736581182731e-02  0.0000000000000000e+00 2.7570924560521581e-02 7.7091274288014988e-02  0.0000000000000000e+00 2.7600304470405009e-02 7.6983646035465189e-02  0.0000000000000000e+00 2.7624167843994404e-02 7.6896474307575777e-02  0.0000000000000000e+00 2.7648055095414466e-02 7.6809372587617372e-02  0.0000000000000000e+00 2.7663029307923102e-02 7.6754929108438258e-02  0.0000000000000000e+00 2.7677070697488575e-02 7.6703903282565197e-02  0.0000000000000000e+00 2.7686237305309870e-02 7.6670642972323955e-02  0.0000000000000000e+00 2.7691417027758181e-02 7.6651864577611986e-02  0.0000000000000000e+00 2.7692779485554982e-02 7.6646885441660942e-02  0.0000000000000000e+00 2.7687848913659753e-02 7.6664787939255616e-02  0.0000000000000000e+00 2.7678034393530549e-02 7.6700431655092577e-02  0.0000000000000000e+00 2.7665464384521523e-02 7.6746057094096737e-02  0.0000000000000000e+00 2.7647751704819597e-02 7.6810475716290336e-02  0.0000000000000000e+00 2.7623836703371190e-02 7.6897679004958072e-02  0.0000000000000000e+00 2.7593390175496939e-02 7.7009002465631846e-02  0.0000000000000000e+00 2.7559995820147540e-02 7.7131447114360624e-02  0.0000000000000000e+00 2.7521456589097174e-02 7.7273280662909408e-02  0.0000000000000000e+00 2.7475434293527980e-02 7.7443405607439911e-02  0.0000000000000000e+00 2.7425627223601905e-02 7.7628411028008840e-02  0.0000000000000000e+00 2.7369786474605414e-02 7.7836965641531794e-02  0.0000000000000000e+00 2.7308340895804702e-02 7.8067853786007071e-02  0.0000000000000000e+00 2.7242421582471650e-02 7.8317138588838361e-02  0.0000000000000000e+00 2.7168975614515711e-02 7.8596919686808042e-02  0.0000000000000000e+00 2.7090599428522020e-02 7.8897912741463891e-02  0.0000000000000000e+00 2.7008333699353116e-02 7.9216443153351204e-02  0.0000000000000000e+00 2.6919040924913824e-02 7.9565378482263666e-02  0.0000000000000000e+00 2.6822771862815793e-02 7.9945416279737197e-02  0.0000000000000000e+00 2.6722528176584822e-02 8.0345296611421674e-02  0.0000000000000000e+00 2.6618458975297261e-02 8.0765075944184750e-02  0.0000000000000000e+00 2.6507810904288588e-02 8.1216765927848836e-02  0.0000000000000000e+00 2.6390906466982209e-02 8.1699931542672841e-02  0.0000000000000000e+00 2.6269931103500645e-02 8.2206789912741010e-02  0.0000000000000000e+00 2.6143448222047765e-02 8.2744201482934210e-02  0.0000000000000000e+00 2.6012143986548782e-02 8.3310385072919407e-02  0.0000000000000000e+00 2.5876401348557038e-02 8.3904764151273431e-02  0.0000000000000000e+00 2.5736630689607732e-02 8.4526942444384273e-02  0.0000000000000000e+00 2.5590418697699867e-02 8.5188995709705048e-02  0.0000000000000000e+00 2.5440799921237538e-02 8.5878389984027970e-02  0.0000000000000000e+00 2.5286964956540377e-02 8.6600822267870858e-02  0.0000000000000000e+00 2.5129086762826391e-02 8.7356091433436089e-02  0.0000000000000000e+00 2.4967405297620975e-02 8.8145534513645180e-02  0.0000000000000000e+00 2.4800974581091460e-02 8.8974910978063676e-02  0.0000000000000000e+00 2.4631189633418895e-02 8.9839163051372017e-02  0.0000000000000000e+00 2.4458436133382961e-02 9.0738389632699493e-02  0.0000000000000000e+00 2.4281544617160179e-02 9.1679754506891489e-02  0.0000000000000000e+00 2.4101646168887391e-02 9.2660318590169530e-02  0.0000000000000000e+00 2.3919029354050922e-02 9.3678040011257208e-02  0.0000000000000000e+00 2.3735489954972894e-02 9.4724468701060369e-02  0.0000000000000000e+00 2.3353011469876277e-02 9.6998011182858557e-02  0.0000000000000000e+00 2.3160570255137933e-02 9.8185705923142588e-02  0.0000000000000000e+00 2.2966877880252177e-02 9.9413264161331380e-02  0.0000000000000000e+00 2.2770112067610093e-02 1.0069145365520447e-01  0.0000000000000000e+00 2.2573187644053708e-02 1.0200874274372741e-01  0.0000000000000000e+00 2.2375121368850417e-02 1.0336644456687372e-01  0.0000000000000000e+00 2.2176988870465646e-02 1.0476562396323187e-01  0.0000000000000000e+00 2.1978676132465680e-02 1.0620386572489793e-01  0.0000000000000000e+00 2.1781093390394038e-02 1.0767816772448947e-01  0.0000000000000000e+00 2.1584734971470516e-02 1.0918583774875894e-01  0.0000000000000000e+00 2.1388834496578735e-02 1.1073248753093477e-01  0.0000000000000000e+00 2.1195747537499976e-02 1.1230347278889802e-01  0.0000000000000000e+00 2.1003919751476911e-02 1.1390924194339547e-01  0.0000000000000000e+00 2.0814389892392943e-02 1.1554416007239433e-01  0.0000000000000000e+00 2.0627328156954932e-02 1.1720677218290448e-01  0.0000000000000000e+00 2.0443271374290577e-02 1.1889413164325166e-01  0.0000000000000000e+00 2.0262102084944694e-02 1.2060659075222289e-01  0.0000000000000000e+00 2.0083979394170341e-02 1.2234423819759045e-01  0.0000000000000000e+00 1.9908769668500633e-02 1.2410869485246041e-01  0.0000000000000000e+00 1.9736699850371235e-02 1.2589826777546514e-01  0.0000000000000000e+00 1.9567966938235433e-02 1.2771009633399077e-01  0.0000000000000000e+00 1.9402399849081521e-02 1.2954958589326357e-01  0.0000000000000000e+00 1.9239737041734924e-02 1.3141736648651767e-01  0.0000000000000000e+00 1.9080484322381134e-02 1.3330802638419867e-01  0.0000000000000000e+00 1.8924172770607872e-02 1.3522788887355455e-01  0.0000000000000000e+00 1.8770970359402523e-02 1.3717481133106993e-01  0.0000000000000000e+00 1.8620852897424475e-02 1.3914817221660369e-01  0.0000000000000000e+00 1.8473967750603677e-02 1.4114684435981406e-01  0.0000000000000000e+00 1.8330187270084064e-02 1.4316937278825037e-01  0.0000000000000000e+00 1.8189652884754156e-02 1.4521577130503655e-01  0.0000000000000000e+00 1.8052458523263332e-02 1.4728092887019029e-01  0.0000000000000000e+00 1.7918695963983551e-02 1.4936221221428203e-01  0.0000000000000000e+00 1.7788490904333987e-02 1.5145724664972032e-01  0.0000000000000000e+00 1.7661874842551453e-02 1.5356054712847797e-01  0.0000000000000000e+00 1.7539499470693894e-02 1.5565875327151715e-01  0.0000000000000000e+00 1.7420857018785041e-02 1.5775852548564639e-01  0.0000000000000000e+00 1.7306089697161187e-02 1.5985288515939902e-01  0.0000000000000000e+00 1.7196104248302164e-02 1.6192067570960689e-01  0.0000000000000000e+00 1.7090078574806412e-02 1.6397303625552803e-01  0.0000000000000000e+00 1.6987976001805075e-02 1.6600838465614634e-01  0.0000000000000000e+00 1.6891045483496066e-02 1.6799283601447251e-01  0.0000000000000000e+00 1.6798850256573850e-02 1.6993735540637375e-01  0.0000000000000000e+00 1.6710980538583546e-02 1.7183492695224431e-01  0.0000000000000000e+00 1.6627545501480975e-02 1.7368686309070649e-01  0.0000000000000000e+00 1.6548686338238413e-02 1.7548025296861516e-01  0.0000000000000000e+00 1.6474317805247315e-02 1.7721356845652708e-01  0.0000000000000000e+00 1.6404413327431963e-02 1.7888096394525965e-01  0.0000000000000000e+00 1.6338965890125710e-02 1.8047729079919492e-01  0.0000000000000000e+00 1.6277708122508606e-02 1.8200479285830662e-01  0.0000000000000000e+00 1.6220487881913419e-02 1.8346053353076539e-01  0.0000000000000000e+00 1.6167411412978484e-02 1.8483759042779579e-01  0.0000000000000000e+00 1.6118658085216921e-02 1.8612683409090239e-01  0.0000000000000000e+00 1.6074040273152068e-02 1.8732729727541933e-01  0.0000000000000000e+00 1.6033102849269121e-02 1.8844733404342168e-01  0.0000000000000000e+00 1.5996124995448963e-02 1.8947382751739936e-01  0.0000000000000000e+00 1.5962808035707068e-02 1.9041234494364556e-01  0.0000000000000000e+00 1.5908528122052012e-02 1.9196982052645714e-01  0.0000000000000000e+00 1.5883569304236338e-02 1.9269318769583607e-01  0.0000000000000000e+00 1.5866100604022916e-02 1.9320799744036324e-01  0.0000000000000000e+00 1.5850797479221693e-02 1.9366127101958291e-01  0.0000000000000000e+00 1.5838716377595780e-02 1.9402079858102203e-01  0.0000000000000000e+00 1.5830355437057277e-02 1.9427103530029066e-01  0.0000000000000000e+00 1.5825455552731866e-02 1.9441791248846579e-01  0.0000000000000000e+00 1.5823746134931659e-02 1.9446926419385727e-01  0.0000000000000000e+00 1.5825470437445376e-02 1.9441748176105525e-01  0.0000000000000000e+00 1.5829337928250298e-02 1.9430137349143806e-01  0.0000000000000000e+00 1.5838402026419895e-02 1.9403027183349494e-01  0.0000000000000000e+00 1.5850251377509873e-02 1.9367736331885141e-01  0.0000000000000000e+00 1.5865406935083187e-02 1.9322897408897899e-01  0.0000000000000000e+00 1.5883338249120114e-02 1.9270152683240999e-01  0.0000000000000000e+00 1.5904920353389741e-02 1.9207216312867859e-01  0.0000000000000000e+00 1.5930389531447868e-02 1.9133680186584470e-01  0.0000000000000000e+00 1.5958977057303116e-02 1.9052069517960329e-01  0.0000000000000000e+00 1.5990893616343520e-02 1.8962023611744433e-01  0.0000000000000000e+00 1.6026191441706326e-02 1.8863765898232449e-01  0.0000000000000000e+00 1.6064998901659546e-02 1.8757286372296647e-01  0.0000000000000000e+00 1.6107632115676812e-02 1.8642170209172748e-01  0.0000000000000000e+00 1.6153914665698103e-02 1.8519242098297392e-01  0.0000000000000000e+00 1.6203616833250872e-02 1.8389511659393065e-01  0.0000000000000000e+00 1.6256907732480060e-02 1.8252993862264486e-01  0.0000000000000000e+00 1.6313951562130578e-02 1.8109654702667477e-01  0.0000000000000000e+00 1.6374783506343700e-02 1.7959877509707711e-01  0.0000000000000000e+00 1.6439444825634510e-02 1.7803965844543224e-01  0.0000000000000000e+00 1.6507940817224384e-02 1.7642390781168674e-01  0.0000000000000000e+00 1.6580329986228742e-02 1.7475426151130777e-01  0.0000000000000000e+00 1.6656575809976912e-02 1.7303606904118973e-01  0.0000000000000000e+00 1.6736677766922958e-02 1.7127337326272055e-01  0.0000000000000000e+00 1.6820519661471391e-02 1.6947373561869847e-01  0.0000000000000000e+00 1.6908019343078288e-02 1.6764084769050155e-01  0.0000000000000000e+00 1.6999516433851680e-02 1.6577377894045536e-01  0.0000000000000000e+00 1.7094746528785620e-02 1.6387996200177884e-01  0.0000000000000000e+00 1.7193632237256007e-02 1.6196600456524857e-01  0.0000000000000000e+00 1.7295935450223943e-02 1.6003900472540661e-01  0.0000000000000000e+00 1.7401541054358819e-02 1.5810470604958352e-01  0.0000000000000000e+00 1.7510341935447354e-02 1.5616663242606940e-01  0.0000000000000000e+00 1.7622203701139313e-02 1.5423117744169174e-01  0.0000000000000000e+00 1.7737622342644501e-02 1.5229172031111426e-01  0.0000000000000000e+00 1.7855498056524165e-02 1.5036779698911221e-01  0.0000000000000000e+00 1.7975943435600290e-02 1.4846145393092311e-01  0.0000000000000000e+00 1.8099145314861943e-02 1.4656762711484461e-01  0.0000000000000000e+00 1.8224892844180329e-02 1.4469369773340496e-01  0.0000000000000000e+00 1.8353061773191653e-02 1.4284074805010930e-01  0.0000000000000000e+00 1.8483124006658577e-02 1.4101692201961213e-01  0.0000000000000000e+00 1.8615683168450661e-02 1.3921461909900174e-01  0.0000000000000000e+00 1.8750507408103422e-02 1.3743843006141157e-01  0.0000000000000000e+00 1.8886849903568686e-02 1.3569198818752476e-01  0.0000000000000000e+00 1.9025803314029692e-02 1.3397071999763385e-01  0.0000000000000000e+00 1.9166679236994357e-02 1.3227372688952613e-01  0.0000000000000000e+00 1.9309511111016357e-02 1.3060604725104916e-01  0.0000000000000000e+00 1.9454271370105067e-02 1.2896439562779052e-01  0.0000000000000000e+00 1.9601121953700760e-02 1.2734767586761789e-01  0.0000000000000000e+00 1.9749658893347146e-02 1.2575842730898856e-01  0.0000000000000000e+00 2.0053063758006574e-02 1.2264892837235009e-01  0.0000000000000000e+00 2.0207252123145236e-02 1.2113283124615344e-01  0.0000000000000000e+00 2.0363615031276181e-02 1.1963787304252151e-01  0.0000000000000000e+00 2.0521429918037938e-02 1.1816843643472225e-01  0.0000000000000000e+00 2.0680815480706698e-02 1.1672363021081682e-01  0.0000000000000000e+00 2.0841679350875299e-02 1.1530282828608590e-01  0.0000000000000000e+00 2.1003820864001359e-02 1.1390736844353656e-01  0.0000000000000000e+00 2.1167002101817330e-02 1.1253789045361531e-01  0.0000000000000000e+00 2.1331095150789854e-02 1.1119497941601207e-01  0.0000000000000000e+00 2.1495807125301331e-02 1.0987948483515544e-01  0.0000000000000000e+00 2.1660935306762410e-02 1.0859311268184231e-01  0.0000000000000000e+00 2.1825840858886149e-02 1.0733796250135627e-01  0.0000000000000000e+00 2.1990923988577181e-02 1.0611139819514301e-01  0.0000000000000000e+00 2.2155875358102463e-02 1.0491409306831384e-01  0.0000000000000000e+00 2.2319445096934436e-02 1.0375354114882512e-01  0.0000000000000000e+00 2.2483330588181416e-02 1.0261747573580031e-01  0.0000000000000000e+00 2.2646157116269230e-02 1.0151386776455068e-01  0.0000000000000000e+00 2.2806319890741625e-02 1.0045129940254420e-01  0.0000000000000000e+00 2.2965582804295087e-02 9.9419032893380360e-02  0.0000000000000000e+00 2.3122952660530084e-02 9.8419227813004898e-02  0.0000000000000000e+00 2.3278656618196548e-02 9.7451610877283185e-02  0.0000000000000000e+00 2.3432172166037331e-02 9.6517090863115038e-02  0.0000000000000000e+00 2.3583708082843071e-02 9.5613113971452945e-02  0.0000000000000000e+00 2.3733172148845811e-02 9.4739525433545607e-02  0.0000000000000000e+00 2.3879637293154413e-02 9.3899965563852467e-02  0.0000000000000000e+00 2.4023704466978761e-02 9.3090018540052097e-02  0.0000000000000000e+00 2.4165850568819348e-02 9.2305727693033052e-02  0.0000000000000000e+00 2.4304271912197729e-02 9.1555832874194179e-02  0.0000000000000000e+00 2.4440854191849933e-02 9.0829295947365968e-02  0.0000000000000000e+00 2.4574618032655777e-02 9.0129844060927680e-02  0.0000000000000000e+00 2.4705460216219947e-02 8.9457322433731626e-02  0.0000000000000000e+00 2.4833565720690856e-02 8.8809627117187304e-02  0.0000000000000000e+00 2.4958868711251855e-02 8.8186200512964580e-02  0.0000000000000000e+00 2.5081672967893553e-02 8.7584690766921325e-02  0.0000000000000000e+00 2.5202352897820812e-02 8.7002518146479482e-02  0.0000000000000000e+00 2.5319136450005171e-02 8.6447292638487147e-02  0.0000000000000000e+00 2.5432833576774019e-02 8.5914393824900084e-02  0.0000000000000000e+00 2.5545532018535749e-02 8.5393428297868654e-02  0.0000000000000000e+00 2.5654615977551993e-02 8.4895829749171411e-02  0.0000000000000000e+00 2.5760341992840694e-02 8.4419786904675984e-02  0.0000000000000000e+00 2.5863948494108061e-02 8.3959036884527480e-02  0.0000000000000000e+00 2.5964672999215708e-02 8.3516360159222341e-02  0.0000000000000000e+00 2.6063311700551834e-02 8.3088023075452808e-02  0.0000000000000000e+00 2.6158172127083382e-02 8.2680468566754095e-02  0.0000000000000000e+00 2.6251206057870916e-02 8.2285245199775828e-02  0.0000000000000000e+00 2.6341247223334772e-02 8.1906581362958822e-02  0.0000000000000000e+00 2.6428981887035737e-02 8.1541272656072888e-02  0.0000000000000000e+00 2.6514688376743964e-02 8.1187865705561010e-02  0.0000000000000000e+00 2.6596734105284812e-02 8.0852864021445051e-02  0.0000000000000000e+00 2.6675894719574034e-02 8.0532362364613058e-02  0.0000000000000000e+00 2.6753665260198956e-02 8.0220191858498338e-02  0.0000000000000000e+00 2.6828053728758041e-02 7.9924063887167052e-02  0.0000000000000000e+00 2.6899374214759606e-02 7.9642442423012452e-02  0.0000000000000000e+00 2.6968360303848662e-02 7.9371996128480601e-02  0.0000000000000000e+00 2.7034948751710589e-02 7.9112878539021839e-02  0.0000000000000000e+00 2.7098130709028171e-02 7.8868662496213868e-02  0.0000000000000000e+00 2.6003325521351876e-02 8.3348066576593452e-02  0.0000000000000000e+00 1.7897607663849780e-02 1.4969549700278825e-01  0.0000000000000000e+00 2.7186372760654120e-02 7.8530521482972349e-02  0.0000000000000000e+00 1.9823428627272103e-02 1.2498673657833237e-01  0.0000000000000000e+00 2.7113544234817377e-02 7.8809413499772940e-02  0.0000000000000000e+00 1.6673874234239293e-02 1.7265414625452188e-01  0.0000000000000000e+00 2.5792369610254835e-02 8.4277868342275214e-02  0.0000000000000000e+00 2.3440525365305741e-02 9.6467377310965011e-02  0.0000000000000000e+00 1.5925847911700510e-02 1.9146749472646352e-01  0.0000000000000000e+00 1.8259420729132655e-02 1.4419220304482672e-01  0.0000000000000000e+00 2.5007415144556046e-02 8.7947493639860111e-02  0.0000000000000000e+00 1.6782741018166975e-02 1.7027981717581520e-01  0.0000000000000000e+00 1.7589439443433948e-02 1.5479535072077510e-01  0.0000000000000000e+00 2.4231083937016840e-02 9.1950831981295764e-02  0.0000000000000000e+00 1.9317531782255367e-02 1.3051710012353340e-01  0.0000000000000000e+00 2.7526614135785110e-02 7.7254381386870546e-02  0.0000000000000000e+00 1.6287164314002449e-02 1.8176667524187845e-01  0.0000000000000000e+00 1.5979676880628318e-02 1.8993584608481570e-01  0.0000000000000000e+00 2.7672404093778906e-02 7.6720905399130471e-02  0.0000000000000000e+00 2.3204069814032731e-02 9.7913075235519662e-02  0.0000000000000000e+00 2.0345504597913563e-02 1.1981223851765042e-01  0.0000000000000000e+00 2.2067615465110258e-02 1.0555103840610568e-01  0.0000000000000000e+00 2.7654217792359683e-02 7.6787066139042501e-02  0.0000000000000000e+00 1.5851170757469314e-02 1.9365031345858988e-01  0.0000000000000000e+00 2.1460579675953183e-02 1.1016139261885984e-01  0.0000000000000000e+00 2.1243986035143689e-02 1.1190428452283629e-01  0.0000000000000000e+00 2.7533633316271889e-02 7.7228495504514647e-02  0.0000000000000000e+00 2.6543113216090850e-02 8.1071505619323123e-02  0.0000000000000000e+00 1.8683671635247975e-02 1.3831311552776762e-01  0.0000000000000000e+00 1.6254284614341998e-02 1.8259821414462638e-01  0.0000000000000000e+00 2.4872340920129844e-02 8.8617205611232208e-02  0.0000000000000000e+00 2.6675332075364305e-02 8.0535264563577888e-02  0.0000000000000000e+00 1.5831958727593062e-02 1.9422335699758297e-01  0.0000000000000000e+00 2.2256010727320686e-02 1.0420345075041022e-01  0.0000000000000000e+00 2.0597856688753236e-02 1.1747141174857267e-01  0.0000000000000000e+00 2.7380557303486899e-02 7.7796682198655612e-02  0.0000000000000000e+00 1.7149470150056186e-02 1.6281884994865101e-01  0.0000000000000000e+00 1.7351717431769303e-02 1.5901142355288342e-01  0.0000000000000000e+00 2.6850747131999548e-02 7.9834331203208445e-02  0.0000000000000000e+00 2.5585804801759905e-02 8.5208864905380710e-02  0.0000000000000000e+00 1.9252302887693064e-02 1.3126849633597945e-01  0.0000000000000000e+00 1.6062108339551687e-02 1.8765262233570251e-01  0.0000000000000000e+00 2.4201094765527124e-02 9.2115926085288236e-02  0.0000000000000000e+00 2.7612108032797213e-02 7.6940658185096225e-02  0.0000000000000000e+00 2.5349859214256781e-02 8.6303949264608437e-02  0.0000000000000000e+00 1.5861587680922998e-02 1.9334234656443461e-01  0.0000000000000000e+00 1.6444996973109607e-02 1.7790884747642935e-01  0.0000000000000000e+00 2.2857372604457513e-02 1.0012015177831468e-01  0.0000000000000000e+00 1.8689594030062703e-02 1.3823716767673444e-01  0.0000000000000000e+00 2.6285201596005558e-02 8.2141988520078132e-02  0.0000000000000000e+00 2.6943149248048390e-02 7.9470873014393609e-02  0.0000000000000000e+00 2.3805155758512445e-02 9.4324929425985374e-02  0.0000000000000000e+00 1.6135778689147975e-02 1.8567235279085018e-01  0.0000000000000000e+00 2.2730643779136167e-02 1.0095063544019821e-01  0.0000000000000000e+00 1.8290286065758554e-02 1.4374276759050889e-01  0.0000000000000000e+00 2.6315825761970019e-02 8.2013785291150249e-02  0.0000000000