<?xml version="1.0"?>
<VTKFile type="UnstructuredGrid"  version="0.1"  >
<UnstructuredGrid>
<Piece  NumberOfPoints="4940" NumberOfCells="9650">
<Points>
<DataArray  type="Float64"  NumberOfComponents="3"  format="ascii">500 250 0  0 250 0  250 500 0  250 0 0  256.8885856082646 499.9050767557906 0  263.7719401218049 499.6203791065173 0  270.6448364229772 499.1461232471188 0  277.5020553257866 498.4826693209355 0  284.3383895508592 497.6305211460281 0  291.1486476865662 496.5903258312597 0  297.9276581259182 495.3628732847843 0  304.6702729675493 493.9490956196674 0  311.3713719748657 492.3500664368026 0  318.0258664141369 490.5670000199653 0  324.6287029687753 488.6012504015818 0  331.1748675330201 486.4543103455647 0  337.6593890460416 484.1278102064655 0  344.0773432429536 481.6235166997244 0  350.4238564271474 478.9433315480048 0  356.694109139292 476.0892900492477 0  362.88333985546 473.0635595140469 0  368.9868485575419 469.8684376402048 0  375.0000003153078 466.5063507640667 0  380.9182288257928 462.9798520074548 0  386.7370398729688 459.2916193419558 0  392.4520147244077 455.444453565817 0  398.0588135356345 451.4412761437442 0  403.5531785622926 447.285127045646 0  408.9309374414144 442.9791624087773 0  414.1880064015299 438.5266521049243 0  419.3203932989752 433.9309773069245 0  424.324200661095 429.1956279150535 0  429.1956286596235 424.3241998957182 0  433.9309780058756 419.3203925397119 0  438.5266527445345 414.1880056671062 0  442.9791630130591 408.9309367076756 0  447.2851276060475 403.5531778422888 0  451.4412766621026 398.0588128303826 0  455.4444540361634 392.4520140460735 0  459.2916197786263 386.7370392045948 0  462.9798524073514 380.9182281752347 0  466.5063511234856 374.9999996927758 0  469.8684379657123 368.9868479560565 0  473.0635598144817 362.8833392617846 0  476.0892903190255 356.6941085676214 0  478.9433317963513 350.4238558609745 0  481.6235169154735 344.0773427117675 0  484.12781039012 337.6593885555221 0  486.4543105028062 331.1748670749914 0  488.601250531677 324.6287025528375 0  490.5670001317469 318.0258660188321 0  492.3500665291326 311.3713716102628 0  493.949095695951 304.6702726271575 0  495.3628733416623 297.9276578347343 0  496.5903258712341 291.1486474470129 0  497.6305211749058 284.3383893426084 0  498.4826693388848 277.502055163614 0  499.1461232580606 270.6448362909296 0  499.6203791109319 263.7719400417897 0  499.9050767571306 256.8885855596534 0  499.9050767559877 243.1114143988867 0  499.6203791069493 236.2280598860241 0  499.1461232485393 229.3551635941651 0  498.4826693235677 222.4979446979962 0  497.6305211491849 215.6616104719064 0  496.5903258357701 208.8513523404629 0  495.3628732906988 202.0723419043604 0  493.9490956264813 195.3297270628552 0  492.3500664487791 188.6286280724281 0  490.5670000344809 181.9741336371959 0  488.6012504175981 175.3712970824318 0  486.4543103623226 168.8251325157939 0  484.1278102222298 162.3406109960628 0  481.6235167152198 155.9226567951971 0  478.9433315621651 149.5761436051346 0  476.0892900516498 143.3058908657982 0  473.063559513628 137.1166601437124 0  469.8684376406648 131.0131514433083 0  466.5063507675389 124.9999996907064 0  462.9798520124137 119.0817711822745 0  459.2916193464549 113.2629601339176 0  455.4444535642773 107.5479852733717 0  451.4412761528674 101.9411864767781 0  447.2851270583545 96.44682145403524 0  442.9791624165781 91.06906256805769 0  438.5266521117469 85.81199360630404 0  433.9309773156125 80.67960671046254 0  429.1956279150353 75.67579933888632 0  424.3241998888952 70.80437133373906 0  419.3203925223282 66.06902197812161 0  414.1880056411937 61.47334723289828 0  408.9309366751728 57.0208369601728 0  403.5531778009394 52.71487236176898 0  398.058812796452 48.55872331295853 0  392.4520140187753 44.55554594490843 0  386.7370391799677 40.70838020528396 0  380.9182281475119 37.02014757560744 0  374.9999996718656 33.49364886444181 0  368.9868479340393 30.13156202237255 0  362.8833392380029 26.93644017348339 0  356.6941085456942 23.91070967062674 0  350.4238558420009 21.0566681953261 0  344.0773426899492 18.37648307566465 0  337.6593885328982 15.87218960140942 0  331.1748670549786 13.54568949032341 0  324.6287025315056 11.39874946165088 0  318.0258660010876 9.432999863235466 0  311.3713716017894 7.649933468721599 0  304.6702726190621 6.050904302234756 0  297.9276578269805 4.637126656823085 0  291.148647441857 3.409674127905504 0  284.3383893425031 2.369478825079682 0  277.502055159398 1.517330660648639 0  270.6448362875833 0.853876741662134 0  263.7719400401456 0.3796208889774277 0  256.8885855592052 0.09492324285704967 0  243.1114143979462 0.09492324403817065 0  236.2280598850882 0.3796208931023841 0  229.3551635938215 0.8538767514891958 0  222.4979446968584 1.517330676558146 0  215.6616104703111 2.369478851036291 0  208.8513523382973 3.409674164591252 0  202.0723419066374 4.637126708856528 0  195.3297270659513 6.050904372824903 0  188.628628074828 7.649933550613184 0  181.9741336377093 9.432999965373938 0  175.3712970793675 11.39874958336037 0  168.8251325057572 13.54568964112298 0  162.340610986655 15.87218978129263 0  155.9226567874317 18.37648328793418 0  149.576143602509 21.05666843898663 0  143.3058908718157 23.91070994551046 0  137.1166601505524 26.93644048291054 0  131.0131514451933 30.13156235831508 0  124.9999996848412 33.49364923584736 0  119.0817711715717 37.0201479941652 0  113.2629601211624 40.70838066187849 0  107.5479852622251 44.55554644345162 0  101.9411864693332 48.55872385260452 0  96.44682143286516 52.71487295812284 0  91.06906254351222 57.02083760363669 0  85.81199358272519 61.4733479087879 0  80.67960667988106 66.06902271253972 0  75.67579930062769 70.80437212218331 0  70.80437129287643 75.67580015310926 0  66.06902193673014 80.67960752263491 0  61.47334718684866 85.81199441168215 0  57.02083692524275 91.0690633672404 0  52.71487232786438 96.44682224262129 0  48.55872328070024 101.941187247437 0  44.55554591578033 107.5479860232332 0  40.7083801742321 113.2629608675606 0  37.02014754791168 119.0817718975441 0  33.49364883372994 125.000000381329 0  30.13156199866361 131.0131521097709 0  26.9364401549829 137.1166607985551 0  23.91070965524918 143.3058914868915 0  21.05666818346614 149.576144185037 0  18.37648306853811 155.9226573275967 0  15.8721895918909 162.3406114925245 0  13.54568948170046 168.8251329701392 0  11.39874945301878 175.3712974960928 0  9.432999857087736 181.9741340206533 0  7.649933466342702 188.6286284076045 0  6.050904301250966 195.3297273853278 0  4.637126656808988 202.0723421730917 0  3.409674127767772 208.8513525589684 0  2.369478824521138 215.6616106615248 0  1.517330660909465 222.4979448382452 0  0.8538767414496533 229.355163714981 0  0.3796208887135322 236.2280599646376 0  0.09492324266324204 243.1114144478261 0  0.0949232442452228 256.8885856095658 0  0.3796208935834784 263.7719401236316 0  0.8538767530323526 270.6448364248016 0  1.517330679476544 277.5020553295092 0  2.369478854618649 284.3383895555228 0  3.409674170191892 291.1486476952655 0  4.6371267162381 297.9276581311522 0  6.050904381420935 304.6702729724059 0  7.649933562385399 311.3713719716595 0  9.43299997979841 318.0258664133013 0  11.3987495994252 324.6287029719946 0  13.54568965885832 331.174867545904 0  15.87218979367188 337.6593890464085 0  18.37648329843151 344.0773432384132 0  21.05666844777872 350.423856417535 0  23.91070995156048 356.6941091410045 0  26.93644048988043 362.8833398632205 0  30.13156235982007 368.9868485575877 0  33.49364924138357 375.0000003247478 0  37.0201480006036 380.9182288389023 0  40.70838066758398 386.7370398875706 0  44.55554644477201 392.4520147396792 0  48.55872386086904 398.0588135419111 0  52.71487295981296 403.5531785693063 0  57.02083760525949 408.9309374584583 0  61.47334790862246 414.1880064170849 0  66.06902271205095 419.320393319588 0  70.80437211216579 424.3242006890749 0  75.67580013809859 429.195628692521 0  80.6796075127923 433.930978054209 0  85.81199439754931 438.5266528008431 0  91.06906334717917 442.9791630582355 0  96.44682221438322 447.2851276501571 0  101.9411872243843 451.441276702356 0  107.5479859945825 455.4444540643537 0  113.2629608446994 459.2916198108319 0  119.0817718768376 462.9798524393601 0  125.0000003647644 466.5063511567065 0  131.0131521012763 469.8684379967393 0  137.1166607840049 473.0635598376539 0  143.3058914748804 476.0892903390826 0  149.5761441732679 478.9433318113714 0  155.9226573130112 481.6235169255377 0  162.3406114779862 484.1278104026658 0  168.8251329570439 486.4543105138039 0  175.3712974805475 488.601250542119 0  181.9741340135204 490.5670001408953 0  188.6286284005059 492.3500665318597 0  195.3297273788229 493.9490956972913 0  202.0723421640089 495.3628733414168 0  208.8513525529672 496.5903258712308 0  215.6616106544547 497.6305211744985 0  222.4979448327038 498.4826693384772 0  229.3551637102845 499.1461232581612 0  236.2280599621369 499.6203791111485 0  243.1114144470173 499.9050767573145 0  155.2373389820306 474.8197567317462 0  25.36256300907667 153.9152755065208 0  432.3709625126712 412.6214396304305 0  6.013151705810699 246.637913163471 0  246.6379131630491 493.986848294322 0  338.6995838441862 22.68244767887072 0  477.3175523131281 338.6995838660569 0  493.9868482700757 246.6379131399102 0  246.6201155078769 6.218451882810491 0  417.6179310263282 72.7156044707053 0  102.2232990934413 445.0100869616822 0  63.66330858966404 92.20354579482142 0  391.3105220491464 50.73522820883105 0  72.79295043967942 418.0702734974704 0  448.290574428537 108.25674339002 0  402.4604651193511 440.7462829841712 0  97.55317348421397 59.11376320116034 0  136.7376477664901 33.58246472647134 0  363.3288394375288 465.6947312928271 0  44.0678766556007 381.0860953771871 0  469.6905266180034 142.3890690100806 0  22.68244791668644 338.6995843487432 0  338.699584349159 477.317552078365 0  173.389488083762 18.6681884918202 0  483.4809734778481 179.7121987795732 0  13.50237455842738 306.4709525540879 0  305.9825168523021 487.24416992
[...]
<PointData  Vectors="f_12"> 
<DataArray  type="Float64"  Name="f_12"  NumberOfComponents="3" format="ascii">0.0000000000000000e+00 5.5320686455324009e-01 1.5938035459423038e-02  0.0000000000000000e+00 4.7995585148248121e-01 1.4758882872292293e-02  0.0000000000000000e+00 6.1176673831557826e-01 1.7157576205321868e-02  0.0000000000000000e+00 3.6614482911522739e-01 1.3678443471824059e-02  0.0000000000000000e+00 6.1259743321752524e-01 1.7177231398615492e-02  0.0000000000000000e+00 6.1335623512860127e-01 1.7195268856092027e-02  0.0000000000000000e+00 6.1410580143854010e-01 1.7213140253269778e-02  0.0000000000000000e+00 6.1479469298157463e-01 1.7229629872170464e-02  0.0000000000000000e+00 6.1544533659355916e-01 1.7245263193782556e-02  0.0000000000000000e+00 6.1605239293085279e-01 1.7259886059410888e-02  0.0000000000000000e+00 6.1661638682335762e-01 1.7273512887388116e-02  0.0000000000000000e+00 6.1714191585018285e-01 1.7286243496533207e-02  0.0000000000000000e+00 6.1762238693918969e-01 1.7297910572188064e-02  0.0000000000000000e+00 6.1805290920233513e-01 1.7308394112044340e-02  0.0000000000000000e+00 6.1839202690023998e-01 1.7316676849736482e-02  0.0000000000000000e+00 6.1876597980546644e-01 1.7325797760773573e-02  0.0000000000000000e+00 6.1897625363530995e-01 1.7330958969791758e-02  0.0000000000000000e+00 6.1920242142578674e-01 1.7336495533302763e-02  0.0000000000000000e+00 6.1935673903404165e-01 1.7340284662187278e-02  0.0000000000000000e+00 6.1945976458207619e-01 1.7342810894703065e-02  0.0000000000000000e+00 6.1951650660537527e-01 1.7344182566671550e-02  0.0000000000000000e+00 6.1947351611741130e-01 1.7343136173670441e-02  0.0000000000000000e+00 6.1936185301227453e-01 1.7340415449512467e-02  0.0000000000000000e+00 6.1923028643117917e-01 1.7337178129960908e-02  0.0000000000000000e+00 6.1902526418681603e-01 1.7332145647067136e-02  0.0000000000000000e+00 6.1872559498253865e-01 1.7324821374625970e-02  0.0000000000000000e+00 6.1832160805443337e-01 1.7314969193877441e-02  0.0000000000000000e+00 6.1789562772488227e-01 1.7304580102409484e-02  0.0000000000000000e+00 6.1739872008901064e-01 1.7292488681235514e-02  0.0000000000000000e+00 6.1677575559291231e-01 1.7277390689198195e-02  0.0000000000000000e+00 6.1611178889362272e-01 1.7261342079550938e-02  0.0000000000000000e+00 6.1535583577405994e-01 1.7243142198143546e-02  0.0000000000000000e+00 6.1451451673256674e-01 1.7222971100581855e-02  0.0000000000000000e+00 6.1361427068838303e-01 1.7201465777609105e-02  0.0000000000000000e+00 6.1258438890022449e-01 1.7177001496607964e-02  0.0000000000000000e+00 6.1148093882477939e-01 1.7150929546200035e-02  0.0000000000000000e+00 6.1032869797962497e-01 1.7123823317464957e-02  0.0000000000000000e+00 6.0905276869361236e-01 1.7094012640664180e-02  0.0000000000000000e+00 6.0765077854898142e-01 1.7061507652470463e-02  0.0000000000000000e+00 6.0619005122475267e-01 1.7027856777007203e-02  0.0000000000000000e+00 6.0467483774931174e-01 1.6993187206948250e-02  0.0000000000000000e+00 6.0303582135426437e-01 1.6955988823474794e-02  0.0000000000000000e+00 6.0127417453768461e-01 1.6916321001248198e-02  0.0000000000000000e+00 5.9944307104890227e-01 1.6875451479676132e-02  0.0000000000000000e+00 5.9750437362339759e-01 1.6832578633670228e-02  0.0000000000000000e+00 5.9546878990858121e-01 1.6787942180599525e-02  0.0000000000000000e+00 5.9334414711353345e-01 1.6741783785727757e-02  0.0000000000000000e+00 5.9113666604186910e-01 1.6694319166303300e-02  0.0000000000000000e+00 5.8878356716440472e-01 1.6644196943879735e-02  0.0000000000000000e+00 5.8635242208791116e-01 1.6592920196731399e-02  0.0000000000000000e+00 5.8382799102207261e-01 1.6540244599342165e-02  0.0000000000000000e+00 5.8120225432730099e-01 1.6485967316470330e-02  0.0000000000000000e+00 5.7848764340951098e-01 1.6430449304365432e-02  0.0000000000000000e+00 5.7564805675246722e-01 1.6372973025905735e-02  0.0000000000000000e+00 5.7272052410335006e-01 1.6314310504181612e-02  0.0000000000000000e+00 5.6971306402827881e-01 1.6254690221053063e-02  0.0000000000000000e+00 5.6659368800033705e-01 1.6193464284755738e-02  0.0000000000000000e+00 5.6338690997890295e-01 1.6131212870892059e-02  0.0000000000000000e+00 5.6010193055688307e-01 1.6067867640152535e-02  0.0000000000000000e+00 5.5678609616807018e-01 1.6004899584285807e-02  0.0000000000000000e+00 5.4969768820488052e-01 1.5872350351642757e-02  0.0000000000000000e+00 5.4610213044821154e-01 1.5806269690261807e-02  0.0000000000000000e+00 5.4246284382404619e-01 1.5740331233654283e-02  0.0000000000000000e+00 5.3872161947715280e-01 1.5673117281316453e-02  0.0000000000000000e+00 5.3494571182495509e-01 1.5606484041533900e-02  0.0000000000000000e+00 5.3112154625739683e-01 1.5539722876796971e-02  0.0000000000000000e+00 5.2726284369700904e-01 1.5473595078999289e-02  0.0000000000000000e+00 5.2336697498632656e-01 1.5407849481152236e-02  0.0000000000000000e+00 5.1944979615298714e-01 1.5342903858626775e-02  0.0000000000000000e+00 5.1552024308784761e-01 1.5279008636693332e-02  0.0000000000000000e+00 5.1155314641346172e-01 1.5215690137386819e-02  0.0000000000000000e+00 5.0759653891043599e-01 1.5153929423138257e-02  0.0000000000000000e+00 5.0361744114156126e-01 1.5093092533231820e-02  0.0000000000000000e+00 4.9962307017488750e-01 1.5033410440210327e-02  0.0000000000000000e+00 4.9561839608371661e-01 1.4974915732555358e-02  0.0000000000000000e+00 4.9161117287786260e-01 1.4917822284011012e-02  0.0000000000000000e+00 4.8759674078303444e-01 1.4861936960948102e-02  0.0000000000000000e+00 4.8357562417594468e-01 1.4807342205820112e-02  0.0000000000000000e+00 4.7954190220244935e-01 1.4753893176319210e-02  0.0000000000000000e+00 4.7549957198614567e-01 1.4701560124322985e-02  0.0000000000000000e+00 4.7145957208241746e-01 1.4650421234170156e-02  0.0000000000000000e+00 4.6740890713438382e-01 1.4600397959853469e-02  0.0000000000000000e+00 4.6335309914852318e-01 1.4551385828150609e-02  0.0000000000000000e+00 4.5930530708388667e-01 1.4503475541303081e-02  0.0000000000000000e+00 4.5525924470284523e-01 1.4456552370294777e-02  0.0000000000000000e+00 4.5122514079070603e-01 1.4410679171492149e-02  0.0000000000000000e+00 4.4720978270042078e-01 1.4365868673272638e-02  0.0000000000000000e+00 4.4322216969171446e-01 1.4322225509223805e-02  0.0000000000000000e+00 4.3926988888088903e-01 1.4279658656642031e-02  0.0000000000000000e+00 4.3535918807609297e-01 1.4238370951791996e-02  0.0000000000000000e+00 4.3150251840039106e-01 1.4198371921303488e-02  0.0000000000000000e+00 4.2770742886824242e-01 1.4159735123742081e-02  0.0000000000000000e+00 4.2397857346475826e-01 1.4122570171865393e-02  0.0000000000000000e+00 4.2032809166901630e-01 1.4086903841759014e-02  0.0000000000000000e+00 4.1677796735113121e-01 1.4052977065891693e-02  0.0000000000000000e+00 4.1330659697930155e-01 1.4020570084403907e-02  0.0000000000000000e+00 4.0992490935614967e-01 1.3989785463288249e-02  0.0000000000000000e+00 4.0666705802538067e-01 1.3960897333881273e-02  0.0000000000000000e+00 4.0349857046082116e-01 1.3933517855895189e-02  0.0000000000000000e+00 4.0041842136118427e-01 1.3907710188517854e-02  0.0000000000000000e+00 3.9748166915321503e-01 1.3883749886951921e-02  0.0000000000000000e+00 3.9465256266556520e-01 1.3861520898465554e-02  0.0000000000000000e+00 3.9193739865645422e-01 1.3840704670256734e-02  0.0000000000000000e+00 3.8932801426357899e-01 1.3821401073203923e-02  0.0000000000000000e+00 3.8683697568201092e-01 1.3803539642706392e-02  0.0000000000000000e+00 3.8445968631045435e-01 1.3787057363722004e-02  0.0000000000000000e+00 3.8220067789408491e-01 1.3771890059593858e-02  0.0000000000000000e+00 3.8006294595380452e-01 1.3757987622871110e-02  0.0000000000000000e+00 3.7803504554283868e-01 1.3745237728072686e-02  0.0000000000000000e+00 3.7611747746051022e-01 1.3733516220825442e-02  0.0000000000000000e+00 3.7432069271878116e-01 1.3722856192876050e-02  0.0000000000000000e+00 3.7265315072820987e-01 1.3713265545771035e-02  0.0000000000000000e+00 3.7111323900727472e-01 1.3704661366282700e-02  0.0000000000000000e+00 3.6968158317134936e-01 1.3696882404382391e-02  0.0000000000000000e+00 3.6837988435725177e-01 1.3689958034480500e-02  0.0000000000000000e+00 3.6719555577763047e-01 1.3683808146427751e-02  0.0000000000000000e+00 3.6525726054113439e-01 1.3674067569697627e-02  0.0000000000000000e+00 3.6433029979221171e-01 1.3669434060388581e-02  0.0000000000000000e+00 3.6371429469297206e-01 1.3666465613376477e-02  0.0000000000000000e+00 3.6315757169868706e-01 1.3663818962123504e-02  0.0000000000000000e+00 3.6271679058198164e-01 1.3661721814008735e-02  0.0000000000000000e+00 3.6241647757084211e-01 1.3660319475760066e-02  0.0000000000000000e+00 3.6224874141516178e-01 1.3659534863282887e-02  0.0000000000000000e+00 3.6219607498536099e-01 1.3659288191432603e-02  0.0000000000000000e+00 3.6227393315886314e-01 1.3659650547378069e-02  0.0000000000000000e+00 3.6241116562634634e-01 1.3660282812790393e-02  0.0000000000000000e+00 3.6277292219361823e-01 1.3661987711571268e-02  0.0000000000000000e+00 3.6322761580496243e-01 1.3664147402002856e-02  0.0000000000000000e+00 3.6380220469475510e-01 1.3666915231167150e-02  0.0000000000000000e+00 3.6446953478912503e-01 1.3670135172264028e-02  0.0000000000000000e+00 3.6527019512480013e-01 1.3674067001097504e-02  0.0000000000000000e+00 3.6621549081778787e-01 1.3678804974161296e-02  0.0000000000000000e+00 3.6726088715306443e-01 1.3684139230258121e-02  0.0000000000000000e+00 3.6841719511169896e-01 1.3690143957050706e-02  0.0000000000000000e+00 3.6968248457106900e-01 1.3696860890223445e-02  0.0000000000000000e+00 3.7105967404101980e-01 1.3704357226457874e-02  0.0000000000000000e+00 3.7255850153381559e-01 1.3712740943103707e-02  0.0000000000000000e+00 3.7417031521033473e-01 1.3721992420720072e-02  0.0000000000000000e+00 3.7587873473857680e-01 1.3732061662704400e-02  0.0000000000000000e+00 3.7768758907936356e-01 1.3743041986042722e-02  0.0000000000000000e+00 3.7960226704728695e-01 1.3755011409659944e-02  0.0000000000000000e+00 3.8162013722624943e-01 1.3768018711870552e-02  0.0000000000000000e+00 3.8374110238319947e-01 1.3782111443377220e-02  0.0000000000000000e+00 3.8596169384867784e-01 1.3797338560409182e-02  0.0000000000000000e+00 3.8828290441182994e-01 1.3813754437713665e-02  0.0000000000000000e+00 3.9070141424038218e-01 1.3831399235875473e-02  0.0000000000000000e+00 3.9321623505069431e-01 1.3850314806458172e-02  0.0000000000000000e+00 3.9582020736385004e-01 1.3870508208773119e-02  0.0000000000000000e+00 3.9851339622846421e-01 1.3891987775027767e-02  0.0000000000000000e+00 4.0130182402677733e-01 1.3914915008199535e-02  0.0000000000000000e+00 4.0418498039513628e-01 1.3939248456286820e-02  0.0000000000000000e+00 4.0715438855439534e-01 1.3965001040525985e-02  0.0000000000000000e+00 4.1020420315006356e-01 1.3992131945475281e-02  0.0000000000000000e+00 4.1332940392196094e-01 1.4020602895984988e-02  0.0000000000000000e+00 4.1652731446085023e-01 1.4050393155467612e-02  0.0000000000000000e+00 4.1979081543033797e-01 1.4081506392257389e-02  0.0000000000000000e+00 4.2313801823147201e-01 1.4114049043453187e-02  0.0000000000000000e+00 4.2653197073497195e-01 1.4147687365176300e-02  0.0000000000000000e+00 4.2996842423858778e-01 1.4182438270603597e-02  0.0000000000000000e+00 4.3345824514140857e-01 1.4218271577203141e-02  0.0000000000000000e+00 4.3698651855332538e-01 1.4255183069714551e-02  0.0000000000000000e+00 4.4054646706339562e-01 1.4293024658548151e-02  0.0000000000000000e+00 4.4411841741105273e-01 1.4331612459230971e-02  0.0000000000000000e+00 4.4771585067245817e-01 1.4371148472292419e-02  0.0000000000000000e+00 4.5132349767727920e-01 1.4411505416299682e-02  0.0000000000000000e+00 4.5492608865998385e-01 1.4452299828921940e-02  0.0000000000000000e+00 4.5853569103240988e-01 1.4494158343425888e-02  0.0000000000000000e+00 4.6214121808993319e-01 1.4536526995669159e-02  0.0000000000000000e+00 4.6573200603920389e-01 1.4579615014962424e-02  0.0000000000000000e+00 4.6931102442058381e-01 1.4623378509492475e-02  0.0000000000000000e+00 4.7287869832037926e-01 1.4667893482756017e-02  0.0000000000000000e+00 4.7642387929092156e-01 1.4712980900843624e-02  0.0000000000000000e+00 4.8347079812754118e-01 1.4805508653016443e-02  0.0000000000000000e+00 4.8696156215654834e-01 1.4852777102206430e-02  0.0000000000000000e+00 4.9044379703864549e-01 1.4901007851064919e-02  0.0000000000000000e+00 4.9390193216705924e-01 1.4949846933121631e-02  0.0000000000000000e+00 4.9734046764827200e-01 1.4999451232191062e-02  0.0000000000000000e+00 5.0076088388673401e-01 1.5049796473366907e-02  0.0000000000000000e+00 5.0416196215552556e-01 1.5100872089836400e-02  0.0000000000000000e+00 5.0754094717284826e-01 1.5152577067362002e-02  0.0000000000000000e+00 5.1089841270771519e-01 1.5204918544137054e-02  0.0000000000000000e+00 5.1423207644982682e-01 1.5257810452975938e-02  0.0000000000000000e+00 5.1753931653324281e-01 1.5311229024202540e-02  0.0000000000000000e+00 5.2080687389356328e-01 1.5364791602741533e-02  0.0000000000000000e+00 5.2405476196687184e-01 1.5418877349976996e-02  0.0000000000000000e+00 5.2727140941082096e-01 1.5473230805627640e-02  0.0000000000000000e+00 5.3043302435138906e-01 1.5527372425323756e-02  0.0000000000000000e+00 5.3358794347546701e-01 1.5582139346361910e-02  0.0000000000000000e+00 5.3669615439268936e-01 1.5636766151505305e-02  0.0000000000000000e+00 5.3972135830756318e-01 1.5690470712407440e-02  0.0000000000000000e+00 5.4271286188020662e-01 1.5744283527931221e-02  0.0000000000000000e+00 5.4564765768902979e-01 1.5797509694756458e-02  0.0000000000000000e+00 5.4852958492856785e-01 1.5850347187419650e-02  0.0000000000000000e+00 5.5135134607881775e-01 1.5902577866501316e-02  0.0000000000000000e+00 5.5411670165804616e-01 1.5954206158462134e-02  0.0000000000000000e+00 5.5682566763176766e-01 1.6005243189005123e-02  0.0000000000000000e+00 5.5945016344411613e-01 1.6055114287409199e-02  0.0000000000000000e+00 5.6201568720633355e-01 1.6104267354108626e-02  0.0000000000000000e+00 5.6452720382842259e-01 1.6152777150922316e-02  0.0000000000000000e+00 5.6694329602838567e-01 1.6199828815994379e-02  0.0000000000000000e+00 5.6931392782776225e-01 1.6246386219142366e-02  0.0000000000000000e+00 5.7161345584823242e-01 1.6291855967312318e-02  0.0000000000000000e+00 5.7383875456027633e-01 1.6336224136300571e-02  0.0000000000000000e+00 5.7599830791821527e-01 1.6379618008395241e-02  0.0000000000000000e+00 5.7809049528242751e-01 1.6421977944679436e-02  0.0000000000000000e+00 5.8012476563683713e-01 1.6463488267870412e-02  0.0000000000000000e+00 5.8211065073897028e-01 1.6504308505848928e-02  0.0000000000000000e+00 5.8400186399737652e-01 1.6543477567482038e-02  0.0000000000000000e+00 5.8582596256951935e-01 1.6581554238016664e-02  0.0000000000000000e+00 5.8763351860945390e-01 1.6619539206445908e-02  0.0000000000000000e+00 5.8935867018041010e-01 1.6656070907991212e-02  0.0000000000000000e+00 5.9101100921760674e-01 1.6691337124154836e-02  0.0000000000000000e+00 5.9262197224238011e-01 1.6725943537883831e-02  0.0000000000000000e+00 5.9417310762715247e-01 1.6759488574560458e-02  0.0000000000000000e+00 5.9568636147131371e-01 1.6792454886802016e-02  0.0000000000000000e+00 5.9711911904613146e-01 1.6823850550242252e-02  0.0000000000000000e+00 5.9852324516683464e-01 1.6854845143720282e-02  0.0000000000000000e+00 5.9986873424826281e-01 1.6884738224497060e-02  0.0000000000000000e+00 6.0117394343874697e-01 1.6913887994417350e-02  0.0000000000000000e+00 6.0244581058537627e-01 1.6942457343981851e-02  0.0000000000000000e+00 6.0364675521818645e-01 1.6969647704555894e-02  0.0000000000000000e+00 6.0479824927236747e-01 1.6995852065771422e-02  0.0000000000000000e+00 6.0593454650491574e-01 1.7021836418952222e-02  0.0000000000000000e+00 6.0701072346170404e-01 1.7046589189948582e-02  0.0000000000000000e+00 6.0803439366339207e-01 1.7070277456440183e-02  0.0000000000000000e+00 6.0902490831093692e-01 1.7093289465832391e-02  0.0000000000000000e+00 6.0997911058816878e-01 1.7115565060575284e-02  0.0000000000000000e+00 6.1087754186548404e-01 1.7136635504028139e-02  0.0000000000000000e+00 5.9463216694025200e-01 1.6769538991960025e-02  0.0000000000000000e+00 4.2775599135085168e-01 1.4160038728358526e-02  0.0000000000000000e+00 6.1269144790423169e-01 1.7179620662046539e-02  0.0000000000000000e+00 4.7812583844967421e-01 1.4735025368245969e-02  0.0000000000000000e+00 6.1095834091213064e-01 1.7138616666620903e-02  0.0000000000000000e+00 3.9085215887488362e-01 1.3832661602182392e-02  0.0000000000000000e+00 5.9186946489528158e-01 1.6710134361565807e-02  0.0000000000000000e+00 5.5122073685480666e-01 1.5900749424075936e-02  0.0000000000000000e+00 3.6598123820118783e-01 1.3677698294182796e-02  0.0000000000000000e+00 4.3732643464428794e-01 1.4259093184545567e-02  0.0000000000000000e+00 5.7879438272145534e-01 1.6436365657342612e-02  0.0000000000000000e+00 3.9470735851525984e-01 1.3861850056044456e-02  0.0000000000000000e+00 4.1826814187738920e-01 1.4067176293994054e-02  0.0000000000000000e+00 5.6555401451209331e-01 1.6172793438564835e-02  0.0000000000000000e+00 4.6528905539905530e-01 1.4574709849429577e-02  0.0000000000000000e+00 6.1730639335406368e-01 1.7290345688502476e-02  0.0000000000000000e+00 3.7877706663165844e-01 1.3749854380584469e-02  0.0000000000000000e+00 3.6809716217285610e-01 1.3688521661114561e-02  0.0000000000000000e+00 6.1908903584161468e-01 1.7333809836123620e-02  0.0000000000000000e+00 5.4705289839134663e-01 1.5823264528973965e-02  0.0000000000000000e+00 4.8942054101284593e-01 1.4887211165401357e-02  0.0000000000000000e+00 5.2547354492422926e-01 1.5442811664345243e-02  0.0000000000000000e+00 6.1872923201700458e-01 1.7324999515741520e-02  0.0000000000000000e+00 3.6336141328263982e-01 1.3664844392119277e-02  0.0000000000000000e+00 5.1294484135417884e-01 1.5237825868452940e-02  0.0000000000000000e+00 5.0903326865314058e-01 1.5175788062060406e-02  0.0000000000000000e+00 6.1693310056044659e-01 1.7281279264681721e-02  0.0000000000000000e+00 6.0271124567765422e-01 1.6948549011341452e-02  0.0000000000000000e+00 4.4953795645045053e-01 1.4391491432790856e-02  0.0000000000000000e+00 3.7734053842963766e-01 1.3741010700577325e-02  0.0000000000000000e+00 5.7673418525298559e-01 1.6394974992306861e-02  0.0000000000000000e+00 6.0536970271638191e-01 1.7009147886775777e-02  0.0000000000000000e+00 3.6257244840547009e-01 1.3661101853847644e-02  0.0000000000000000e+00 5.2872218801557080e-01 1.5498545776493674e-02  0.0000000000000000e+00 4.9550387488581560e-01 1.4972878233548202e-02  0.0000000000000000e+00 6.1475548109218248e-01 1.7228783238813487e-02  0.0000000000000000e+00 4.0532329391232930e-01 1.3949268916205546e-02  0.0000000000000000e+00 4.1189298939119728e-01 1.4007482769437914e-02  0.0000000000000000e+00 6.0719639125201730e-01 1.7050968154025348e-02  0.0000000000000000e+00 5.8813243777480007e-01 1.6630149061271849e-02  0.0000000000000000e+00 4.6427885151126869e-01 1.4562123435649473e-02  0.0000000000000000e+00 3.7079264253472838e-01 1.3702970807981642e-02  0.0000000000000000e+00 5.6503753871000673e-01 1.6163269860149494e-02  0.0000000000000000e+00 6.1833602078644911e-01 1.7315436997598459e-02  0.0000000000000000e+00 5.8469744758756259e-01 1.6558427581932517e-02  0.0000000000000000e+00 3.6363663490128439e-01 1.3666165786574546e-02  0.0000000000000000e+00 3.8359194046348666e-01 1.3781222915895435e-02  0.0000000000000000e+00 5.4025750412467699e-01 1.5700677781994136e-02  0.0000000000000000e+00 4.4906200204007068e-01 1.4386486856280176e-02  0.0000000000000000e+00 5.9888242570313066e-01 1.6862889354163951e-02  0.0000000000000000e+00 6.0921105598337288e-01 1.7097816208712899e-02  0.0000000000000000e+00 5.5798568888600730e-01 1.6027305405415467e-02  0.0000000000000000e+00 3.7362430305382005e-01 1.3718878499442904e-02  0.0000000000000000e+00 5.3820496590994593e-01 1.5663538343989272e-02  0.0000000000000000e+00 4.3881587022701957e-01 1.4274601198395931e-02  0.0000000000000000e+00 5.9998924506976259e-01 1.6887691394433118e-02  0.0000000000