<?xml version="1.0"?>
<VTKFile type="UnstructuredGrid"  version="0.1"  >
<UnstructuredGrid>
<Piece  NumberOfPoints="4940" NumberOfCells="9650">
<Points>
<DataArray  type="Float64"  NumberOfComponents="3"  format="ascii">500 250 0  0 250 0  250 500 0  250 0 0  256.8885856082646 499.9050767557906 0  263.7719401218049 499.6203791065173 0  270.6448364229772 499.1461232471188 0  277.5020553257866 498.4826693209355 0  284.3383895508592 497.6305211460281 0  291.1486476865662 496.5903258312597 0  297.9276581259182 495.3628732847843 0  304.6702729675493 493.9490956196674 0  311.3713719748657 492.3500664368026 0  318.0258664141369 490.5670000199653 0  324.6287029687753 488.6012504015818 0  331.1748675330201 486.4543103455647 0  337.6593890460416 484.1278102064655 0  344.0773432429536 481.6235166997244 0  350.4238564271474 478.9433315480048 0  356.694109139292 476.0892900492477 0  362.88333985546 473.0635595140469 0  368.9868485575419 469.8684376402048 0  375.0000003153078 466.5063507640667 0  380.9182288257928 462.9798520074548 0  386.7370398729688 459.2916193419558 0  392.4520147244077 455.444453565817 0  398.0588135356345 451.4412761437442 0  403.5531785622926 447.285127045646 0  408.9309374414144 442.9791624087773 0  414.1880064015299 438.5266521049243 0  419.3203932989752 433.9309773069245 0  424.324200661095 429.1956279150535 0  429.1956286596235 424.3241998957182 0  433.9309780058756 419.3203925397119 0  438.5266527445345 414.1880056671062 0  442.9791630130591 408.9309367076756 0  447.2851276060475 403.5531778422888 0  451.4412766621026 398.0588128303826 0  455.4444540361634 392.4520140460735 0  459.2916197786263 386.7370392045948 0  462.9798524073514 380.9182281752347 0  466.5063511234856 374.9999996927758 0  469.8684379657123 368.9868479560565 0  473.0635598144817 362.8833392617846 0  476.0892903190255 356.6941085676214 0  478.9433317963513 350.4238558609745 0  481.6235169154735 344.0773427117675 0  484.12781039012 337.6593885555221 0  486.4543105028062 331.1748670749914 0  488.601250531677 324.6287025528375 0  490.5670001317469 318.0258660188321 0  492.3500665291326 311.3713716102628 0  493.949095695951 304.6702726271575 0  495.3628733416623 297.9276578347343 0  496.5903258712341 291.1486474470129 0  497.6305211749058 284.3383893426084 0  498.4826693388848 277.502055163614 0  499.1461232580606 270.6448362909296 0  499.6203791109319 263.7719400417897 0  499.9050767571306 256.8885855596534 0  499.9050767559877 243.1114143988867 0  499.6203791069493 236.2280598860241 0  499.1461232485393 229.3551635941651 0  498.4826693235677 222.4979446979962 0  497.6305211491849 215.6616104719064 0  496.5903258357701 208.8513523404629 0  495.3628732906988 202.0723419043604 0  493.9490956264813 195.3297270628552 0  492.3500664487791 188.6286280724281 0  490.5670000344809 181.9741336371959 0  488.6012504175981 175.3712970824318 0  486.4543103623226 168.8251325157939 0  484.1278102222298 162.3406109960628 0  481.6235167152198 155.9226567951971 0  478.9433315621651 149.5761436051346 0  476.0892900516498 143.3058908657982 0  473.063559513628 137.1166601437124 0  469.8684376406648 131.0131514433083 0  466.5063507675389 124.9999996907064 0  462.9798520124137 119.0817711822745 0  459.2916193464549 113.2629601339176 0  455.4444535642773 107.5479852733717 0  451.4412761528674 101.9411864767781 0  447.2851270583545 96.44682145403524 0  442.9791624165781 91.06906256805769 0  438.5266521117469 85.81199360630404 0  433.9309773156125 80.67960671046254 0  429.1956279150353 75.67579933888632 0  424.3241998888952 70.80437133373906 0  419.3203925223282 66.06902197812161 0  414.1880056411937 61.47334723289828 0  408.9309366751728 57.0208369601728 0  403.5531778009394 52.71487236176898 0  398.058812796452 48.55872331295853 0  392.4520140187753 44.55554594490843 0  386.7370391799677 40.70838020528396 0  380.9182281475119 37.02014757560744 0  374.9999996718656 33.49364886444181 0  368.9868479340393 30.13156202237255 0  362.8833392380029 26.93644017348339 0  356.6941085456942 23.91070967062674 0  350.4238558420009 21.0566681953261 0  344.0773426899492 18.37648307566465 0  337.6593885328982 15.87218960140942 0  331.1748670549786 13.54568949032341 0  324.6287025315056 11.39874946165088 0  318.0258660010876 9.432999863235466 0  311.3713716017894 7.649933468721599 0  304.6702726190621 6.050904302234756 0  297.9276578269805 4.637126656823085 0  291.148647441857 3.409674127905504 0  284.3383893425031 2.369478825079682 0  277.502055159398 1.517330660648639 0  270.6448362875833 0.853876741662134 0  263.7719400401456 0.3796208889774277 0  256.8885855592052 0.09492324285704967 0  243.1114143979462 0.09492324403817065 0  236.2280598850882 0.3796208931023841 0  229.3551635938215 0.8538767514891958 0  222.4979446968584 1.517330676558146 0  215.6616104703111 2.369478851036291 0  208.8513523382973 3.409674164591252 0  202.0723419066374 4.637126708856528 0  195.3297270659513 6.050904372824903 0  188.628628074828 7.649933550613184 0  181.9741336377093 9.432999965373938 0  175.3712970793675 11.39874958336037 0  168.8251325057572 13.54568964112298 0  162.340610986655 15.87218978129263 0  155.9226567874317 18.37648328793418 0  149.576143602509 21.05666843898663 0  143.3058908718157 23.91070994551046 0  137.1166601505524 26.93644048291054 0  131.0131514451933 30.13156235831508 0  124.9999996848412 33.49364923584736 0  119.0817711715717 37.0201479941652 0  113.2629601211624 40.70838066187849 0  107.5479852622251 44.55554644345162 0  101.9411864693332 48.55872385260452 0  96.44682143286516 52.71487295812284 0  91.06906254351222 57.02083760363669 0  85.81199358272519 61.4733479087879 0  80.67960667988106 66.06902271253972 0  75.67579930062769 70.80437212218331 0  70.80437129287643 75.67580015310926 0  66.06902193673014 80.67960752263491 0  61.47334718684866 85.81199441168215 0  57.02083692524275 91.0690633672404 0  52.71487232786438 96.44682224262129 0  48.55872328070024 101.941187247437 0  44.55554591578033 107.5479860232332 0  40.7083801742321 113.2629608675606 0  37.02014754791168 119.0817718975441 0  33.49364883372994 125.000000381329 0  30.13156199866361 131.0131521097709 0  26.9364401549829 137.1166607985551 0  23.91070965524918 143.3058914868915 0  21.05666818346614 149.576144185037 0  18.37648306853811 155.9226573275967 0  15.8721895918909 162.3406114925245 0  13.54568948170046 168.8251329701392 0  11.39874945301878 175.3712974960928 0  9.432999857087736 181.9741340206533 0  7.649933466342702 188.6286284076045 0  6.050904301250966 195.3297273853278 0  4.637126656808988 202.0723421730917 0  3.409674127767772 208.8513525589684 0  2.369478824521138 215.6616106615248 0  1.517330660909465 222.4979448382452 0  0.8538767414496533 229.355163714981 0  0.3796208887135322 236.2280599646376 0  0.09492324266324204 243.1114144478261 0  0.0949232442452228 256.8885856095658 0  0.3796208935834784 263.7719401236316 0  0.8538767530323526 270.6448364248016 0  1.517330679476544 277.5020553295092 0  2.369478854618649 284.3383895555228 0  3.409674170191892 291.1486476952655 0  4.6371267162381 297.9276581311522 0  6.050904381420935 304.6702729724059 0  7.649933562385399 311.3713719716595 0  9.43299997979841 318.0258664133013 0  11.3987495994252 324.6287029719946 0  13.54568965885832 331.174867545904 0  15.87218979367188 337.6593890464085 0  18.37648329843151 344.0773432384132 0  21.05666844777872 350.423856417535 0  23.91070995156048 356.6941091410045 0  26.93644048988043 362.8833398632205 0  30.13156235982007 368.9868485575877 0  33.49364924138357 375.0000003247478 0  37.0201480006036 380.9182288389023 0  40.70838066758398 386.7370398875706 0  44.55554644477201 392.4520147396792 0  48.55872386086904 398.0588135419111 0  52.71487295981296 403.5531785693063 0  57.02083760525949 408.9309374584583 0  61.47334790862246 414.1880064170849 0  66.06902271205095 419.320393319588 0  70.80437211216579 424.3242006890749 0  75.67580013809859 429.195628692521 0  80.6796075127923 433.930978054209 0  85.81199439754931 438.5266528008431 0  91.06906334717917 442.9791630582355 0  96.44682221438322 447.2851276501571 0  101.9411872243843 451.441276702356 0  107.5479859945825 455.4444540643537 0  113.2629608446994 459.2916198108319 0  119.0817718768376 462.9798524393601 0  125.0000003647644 466.5063511567065 0  131.0131521012763 469.8684379967393 0  137.1166607840049 473.0635598376539 0  143.3058914748804 476.0892903390826 0  149.5761441732679 478.9433318113714 0  155.9226573130112 481.6235169255377 0  162.3406114779862 484.1278104026658 0  168.8251329570439 486.4543105138039 0  175.3712974805475 488.601250542119 0  181.9741340135204 490.5670001408953 0  188.6286284005059 492.3500665318597 0  195.3297273788229 493.9490956972913 0  202.0723421640089 495.3628733414168 0  208.8513525529672 496.5903258712308 0  215.6616106544547 497.6305211744985 0  222.4979448327038 498.4826693384772 0  229.3551637102845 499.1461232581612 0  236.2280599621369 499.6203791111485 0  243.1114144470173 499.9050767573145 0  155.2373389820306 474.8197567317462 0  25.36256300907667 153.9152755065208 0  432.3709625126712 412.6214396304305 0  6.013151705810699 246.637913163471 0  246.6379131630491 493.986848294322 0  338.6995838441862 22.68244767887072 0  477.3175523131281 338.6995838660569 0  493.9868482700757 246.6379131399102 0  246.6201155078769 6.218451882810491 0  417.6179310263282 72.7156044707053 0  102.2232990934413 445.0100869616822 0  63.66330858966404 92.20354579482142 0  391.3105220491464 50.73522820883105 0  72.79295043967942 418.0702734974704 0  448.290574428537 108.25674339002 0  402.4604651193511 440.7462829841712 0  97.55317348421397 59.11376320116034 0  136.7376477664901 33.58246472647134 0  363.3288394375288 465.6947312928271 0  44.0678766556007 381.0860953771871 0  469.6905266180034 142.3890690100806 0  22.68244791668644 338.6995843487432 0  338.699584349159 477.317552078365 0  173.389488083762 18.6681884918202 0  483.4809734778481 179.7121987795732 0  13.50237455842738 306.4709525540879 0  305.9825168523021 487.24416992
[...]
<PointData  Vectors="f_12"> 
<DataArray  type="Float64"  Name="f_12"  NumberOfComponents="3" format="ascii">0.0000000000000000e+00 2.6247695975779774e-02 6.3091140062861498e-02  0.0000000000000000e+00 2.2066390165692701e-02 8.4990693803788056e-02  0.0000000000000000e+00 3.0591565540800038e-02 4.9720921024257562e-02  0.0000000000000000e+00 1.7465771250622358e-02 1.4029094650696694e-01  0.0000000000000000e+00 3.0660586649320223e-02 4.9554600839658645e-02  0.0000000000000000e+00 3.0723582766043218e-02 4.9403834902539065e-02  0.0000000000000000e+00 3.0784641361681606e-02 4.9258566990201307e-02  0.0000000000000000e+00 3.0840304465352759e-02 4.9126874791704356e-02  0.0000000000000000e+00 3.0892002916930589e-02 4.9005240585014348e-02  0.0000000000000000e+00 3.0939341401852644e-02 4.8894358464842275e-02  0.0000000000000000e+00 3.0982303475974880e-02 4.8794173251928155e-02  0.0000000000000000e+00 3.1021148550687196e-02 4.8703944780380835e-02  0.0000000000000000e+00 3.1055402862282103e-02 4.8624644958983582e-02  0.0000000000000000e+00 3.1084687783623562e-02 4.8557077438015017e-02  0.0000000000000000e+00 3.1106219352660235e-02 4.8507552752311021e-02  0.0000000000000000e+00 3.1128557060788289e-02 4.8456195094101866e-02  0.0000000000000000e+00 3.1138110341257137e-02 4.8434331976717877e-02  0.0000000000000000e+00 3.1147145187635596e-02 4.8413609664298675e-02  0.0000000000000000e+00 3.1149714013875212e-02 4.8407735001987508e-02  0.0000000000000000e+00 3.1147220837694986e-02 4.8413445334894036e-02  0.0000000000000000e+00 3.1139999259708000e-02 4.8429932572411051e-02  0.0000000000000000e+00 3.1124415616148812e-02 4.8465719330604548e-02  0.0000000000000000e+00 3.1102674361043584e-02 4.8515728325920875e-02  0.0000000000000000e+00 3.1078031793138422e-02 4.8572436533286703e-02  0.0000000000000000e+00 3.1046950548997535e-02 4.8644184415008000e-02  0.0000000000000000e+00 3.1007972536398521e-02 4.8734531118835585e-02  0.0000000000000000e+00 3.0960631271967357e-02 4.8844720785094956e-02  0.0000000000000000e+00 3.0910416633104058e-02 4.8962081832032212e-02  0.0000000000000000e+00 3.0854092891859915e-02 4.9094415268812350e-02  0.0000000000000000e+00 3.0788213127187172e-02 4.9250161853727790e-02  0.0000000000000000e+00 3.0718430547147565e-02 4.9416215204195917e-02  0.0000000000000000e+00 3.0641469979909196e-02 4.9600694022953300e-02  0.0000000000000000e+00 3.0558012429384641e-02 4.9802352755609847e-02  0.0000000000000000e+00 3.0469819404293323e-02 5.0017206881245446e-02  0.0000000000000000e+00 3.0372549181393562e-02 5.0256406482758996e-02  0.0000000000000000e+00 3.0270068348600989e-02 5.0511008395351081e-02  0.0000000000000000e+00 3.0163976061285243e-02 5.0777251589362915e-02  0.0000000000000000e+00 3.0049895827283499e-02 5.1066809926057381e-02  0.0000000000000000e+00 2.9928068759972934e-02 5.1379888368763879e-02  0.0000000000000000e+00 2.9802842408170542e-02 5.1705728717774867e-02  0.0000000000000000e+00 2.9674574196000725e-02 5.2043867928756628e-02  0.0000000000000000e+00 2.9539523104490234e-02 5.2404884946121874e-02  0.0000000000000000e+00 2.9398219926683785e-02 5.2788002425811678e-02  0.0000000000000000e+00 2.9253950177774334e-02 5.3185233994019962e-02  0.0000000000000000e+00 2.9104819081388646e-02 5.3602317038404963e-02  0.0000000000000000e+00 2.8951766549539723e-02 5.4037292348435823e-02  0.0000000000000000e+00 2.8795438966256033e-02 5.4488987615132045e-02  0.0000000000000000e+00 2.8636419041978865e-02 5.4956553847355150e-02  0.0000000000000000e+00 2.8471587811206022e-02 5.5449893122952995e-02  0.0000000000000000e+00 2.8304724207386590e-02 5.5958324858606474e-02  0.0000000000000000e+00 2.8134955532960762e-02 5.6485660474842256e-02  0.0000000000000000e+00 2.7962087153817653e-02 5.7032591880667186e-02  0.0000000000000000e+00 2.7786500665464058e-02 5.7599420976787268e-02  0.0000000000000000e+00 2.7606583644268903e-02 5.8191886310702517e-02  0.0000000000000000e+00 2.7423872332973595e-02 5.8806004228216517e-02  0.0000000000000000e+00 2.7238509876917515e-02 5.9442518160075369e-02  0.0000000000000000e+00 2.7048656090453073e-02 6.0108399249721736e-02  0.0000000000000000e+00 2.6855263844439752e-02 6.0802409140650202e-02  0.0000000000000000e+00 2.6658228490376263e-02 6.1524486002802102e-02  0.0000000000000000e+00 2.6459445856194103e-02 6.2269333938924643e-02  0.0000000000000000e+00 2.6038115933050828e-02 6.3913941314301156e-02  0.0000000000000000e+00 2.5823142875016518e-02 6.4785053742188195e-02  0.0000000000000000e+00 2.5604325385330435e-02 6.5696321111912190e-02  0.0000000000000000e+00 2.5379059122696435e-02 6.6658815988967030e-02  0.0000000000000000e+00 2.5150826651457292e-02 6.7665023564504032e-02  0.0000000000000000e+00 2.4918769208996966e-02 6.8715908864584188e-02  0.0000000000000000e+00 2.4684300216899092e-02 6.9813498619147735e-02  0.0000000000000000e+00 2.4447785870359031e-02 7.0954936410439984e-02  0.0000000000000000e+00 2.4210933375545102e-02 7.2136283765652606e-02  0.0000000000000000e+00 2.3975056819323513e-02 7.3352982590522850e-02  0.0000000000000000e+00 2.3739869521591843e-02 7.4606959285489313e-02  0.0000000000000000e+00 2.3509019193302134e-02 7.5882471185453784e-02  0.0000000000000000e+00 2.3281208297509650e-02 7.7184429490635101e-02  0.0000000000000000e+00 2.3058142984424615e-02 7.8505083069966161e-02  0.0000000000000000e+00 2.2840370801826271e-02 7.9839910002524370e-02  0.0000000000000000e+00 2.2628698918415218e-02 8.1183925412647573e-02  0.0000000000000000e+00 2.2422887379110870e-02 8.2536027073299004e-02  0.0000000000000000e+00 2.2222942715815874e-02 8.3895539927566917e-02  0.0000000000000000e+00 2.2028336913896031e-02 8.5264182972327657e-02  0.0000000000000000e+00 2.1838844088674716e-02 8.6642067328736083e-02  0.0000000000000000e+00 2.1654097033271182e-02 8.8029629737741963e-02  0.0000000000000000e+00 2.1473490250425234e-02 8.9432816742887028e-02  0.0000000000000000e+00 2.1296009017048926e-02 9.0856730493306267e-02  0.0000000000000000e+00 2.1121734592195466e-02 9.2300607417708957e-02  0.0000000000000000e+00 2.0949614483636841e-02 9.3773679685420566e-02  0.0000000000000000e+00 2.0779404596744031e-02 9.5278556454039112e-02  0.0000000000000000e+00 2.0610746614022554e-02 9.6818743517298758e-02  0.0000000000000000e+00 2.0443590404254211e-02 9.8396948674506365e-02  0.0000000000000000e+00 2.0277785173565224e-02 1.0001388117793725e-01  0.0000000000000000e+00 2.0113457265993555e-02 1.0167238293068130e-01  0.0000000000000000e+00 1.9950934060688579e-02 1.0336866819604844e-01  0.0000000000000000e+00 1.9790615645792608e-02 1.0510020668493369e-01  0.0000000000000000e+00 1.9632938111810827e-02 1.0686476324222731e-01  0.0000000000000000e+00 1.9478614638163208e-02 1.0865246024744046e-01  0.0000000000000000e+00 1.9328932361161216e-02 1.1044821675779408e-01  0.0000000000000000e+00 1.9183419422811630e-02 1.1225739136206085e-01  0.0000000000000000e+00 1.9042901487350602e-02 1.1406701914714286e-01  0.0000000000000000e+00 1.8909011384650933e-02 1.1585220292868345e-01  0.0000000000000000e+00 1.8780606163100975e-02 1.1762381634189528e-01  0.0000000000000000e+00 1.8657917479772912e-02 1.1937589625449258e-01  0.0000000000000000e+00 1.8542874924740244e-02 1.2107171844427603e-01  0.0000000000000000e+00 1.8434532155520211e-02 1.2272527804644061e-01  0.0000000000000000e+00 1.8332397717312626e-02 1.2432810123513303e-01  0.0000000000000000e+00 1.8236428635935782e-02 1.2588246156705316e-01  0.0000000000000000e+00 1.8146647420820623e-02 1.2737770614509111e-01  0.0000000000000000e+00 1.8062737145650671e-02 1.2881452666631271e-01  0.0000000000000000e+00 1.7984516312515603e-02 1.3018894287054750e-01  0.0000000000000000e+00 1.7911813826520486e-02 1.3149821331009118e-01  0.0000000000000000e+00 1.7844065176726223e-02 1.3274791183923973e-01  0.0000000000000000e+00 1.7780969013680231e-02 1.3393702822382189e-01  0.0000000000000000e+00 1.7722648405227671e-02 1.3505920337316735e-01  0.0000000000000000e+00 1.7669206575625294e-02 1.3610840435796984e-01  0.0000000000000000e+00 1.7620371643576466e-02 1.3708462996374737e-01  0.0000000000000000e+00 1.7575448377746810e-02 1.3799822260339634e-01  0.0000000000000000e+00 1.7534865681011938e-02 1.3883586644551302e-01  0.0000000000000000e+00 1.7498208654794740e-02 1.3960385406518991e-01  0.0000000000000000e+00 1.7438494817338758e-02 1.4087839964959756e-01  0.0000000000000000e+00 1.7410263511850318e-02 1.4148660417963527e-01  0.0000000000000000e+00 1.7391183131221649e-02 1.4190514551377281e-01  0.0000000000000000e+00 1.7374060656038030e-02 1.4228246024757679e-01  0.0000000000000000e+00 1.7360423834644385e-02 1.4258430147507736e-01  0.0000000000000000e+00 1.7350964117282319e-02 1.4279503300328986e-01  0.0000000000000000e+00 1.7345392135377252e-02 1.4291927324216622e-01  0.0000000000000000e+00 1.7343270752865250e-02 1.4296669003040899e-01  0.0000000000000000e+00 1.7344995814162753e-02 1.4292813753955355e-01  0.0000000000000000e+00 1.7348667802600339e-02 1.4284600250912247e-01  0.0000000000000000e+00 1.7358738014393037e-02 1.4262186238429669e-01  0.0000000000000000e+00 1.7371679292071993e-02 1.4233497511676443e-01  0.0000000000000000e+00 1.7388260796431510e-02 1.4196991382360571e-01  0.0000000000000000e+00 1.7407704018073990e-02 1.4154391263141938e-01  0.0000000000000000e+00 1.7431213949857097e-02 1.4103330502460584e-01  0.0000000000000000e+00 1.7459158992466969e-02 1.4043254403497676e-01  0.0000000000000000e+00 1.7490363663593227e-02 1.3976913153669213e-01  0.0000000000000000e+00 1.7525163136501321e-02 1.3903794984648751e-01  0.0000000000000000e+00 1.7563601604987506e-02 1.3824108610449573e-01  0.0000000000000000e+00 1.7605868446849117e-02 1.3737763877890918e-01  0.0000000000000000e+00 1.7652396500006454e-02 1.3644275431478317e-01  0.0000000000000000e+00 1.7703028224874903e-02 1.3544256510582725e-01  0.0000000000000000e+00 1.7757426741836634e-02 1.3438722765000019e-01  0.0000000000000000e+00 1.7815894362131830e-02 1.3327515751224989e-01  0.0000000000000000e+00 1.7878762644498839e-02 1.3210376469464374e-01  0.0000000000000000e+00 1.7946173690265833e-02 1.3087508580604365e-01  0.0000000000000000e+00 1.8018328090921840e-02 1.2958974550466276e-01  0.0000000000000000e+00 1.8095365038418854e-02 1.2825045704728746e-01  0.0000000000000000e+00 1.8177536113556395e-02 1.2685763404810479e-01  0.0000000000000000e+00 1.8264961749760979e-02 1.2541454274786448e-01  0.0000000000000000e+00 1.8357807840592478e-02 1.2392354690447421e-01  0.0000000000000000e+00 1.8456032209119982e-02 1.2239121599132272e-01  0.0000000000000000e+00 1.8559692317194017e-02 1.2082005264546025e-01  0.0000000000000000e+00 1.8669249004010197e-02 1.1921022583387111e-01  0.0000000000000000e+00 1.8784571527236091e-02 1.1756682720737596e-01  0.0000000000000000e+00 1.8905377110133858e-02 1.1589979507804145e-01  0.0000000000000000e+00 1.9031264481081025e-02 1.1421777885607913e-01  0.0000000000000000e+00 1.9161851183458221e-02 1.1252933113567029e-01  0.0000000000000000e+00 1.9296714406217743e-02 1.1084127699190037e-01  0.0000000000000000e+00 1.9435329186125436e-02 1.0916314267781577e-01  0.0000000000000000e+00 1.9578134187503274e-02 1.0749026097402309e-01  0.0000000000000000e+00 1.9723227891722508e-02 1.0584442853264533e-01  0.0000000000000000e+00 1.9870171031933274e-02 1.0423213313081646e-01  0.0000000000000000e+00 2.0019177095503830e-02 1.0264693292244466e-01  0.0000000000000000e+00 2.0169654053733242e-02 1.0109692614341147e-01  0.0000000000000000e+00 2.0321197462574127e-02 9.9583375817853023e-02  0.0000000000000000e+00 2.0472941220823760e-02 9.8113367188065598e-02  0.0000000000000000e+00 2.0625976132499616e-02 9.6675402556636272e-02  0.0000000000000000e+00 2.0779762228130154e-02 9.5274198046528771e-02  0.0000000000000000e+00 2.0933884170222773e-02 9.3907442147885892e-02  0.0000000000000000e+00 2.1089578112174732e-02 9.2571012776839212e-02  0.0000000000000000e+00 2.1246680769912079e-02 9.1258230584132558e-02  0.0000000000000000e+00 2.1405522572213627e-02 8.9970748950138610e-02  0.0000000000000000e+00 2.1566440702614112e-02 8.8703275827095376e-02  0.0000000000000000e+00 2.1730067689457531e-02 8.7451988215362472e-02  0.0000000000000000e+00 2.1896391687032727e-02 8.6216347424735398e-02  0.0000000000000000e+00 2.2240198883049702e-02 8.3774295505742544e-02  0.0000000000000000e+00 2.2417621532829800e-02 8.2568775071724665e-02  0.0000000000000000e+00 2.2599693194728002e-02 8.1369440211801133e-02  0.0000000000000000e+00 2.2785663846283891e-02 8.0180538705465404e-02  0.0000000000000000e+00 2.2975741065696224e-02 7.9002386759104079e-02  0.0000000000000000e+00 2.3169733879307462e-02 7.7836137412372886e-02  0.0000000000000000e+00 2.3367222050308851e-02 7.6684990930042704e-02  0.0000000000000000e+00 2.3567575046592289e-02 7.5552086232454310e-02  0.0000000000000000e+00 2.3770251400139688e-02 7.4440492502371489e-02  0.0000000000000000e+00 2.3974412570182423e-02 7.3353547402824321e-02  0.0000000000000000e+00 2.4179297638230218e-02 7.2295197838147446e-02  0.0000000000000000e+00 2.4383511652384861e-02 7.1269500985298495e-02  0.0000000000000000e+00 2.4587246593271050e-02 7.0275243643026883e-02  0.0000000000000000e+00 2.4789566662264898e-02 6.9314670859558877e-02  0.0000000000000000e+00 2.4988604393523541e-02 6.8394370383272077e-02  0.0000000000000000e+00 2.5186358497982748e-02 6.7503910506871642e-02  0.0000000000000000e+00 2.5380788077162528e-02 6.6650186598720060e-02  0.0000000000000000e+00 2.5569816304977268e-02 6.5839472284736231e-02  0.0000000000000000e+00 2.5755832565583479e-02 6.5061423270412894e-02  0.0000000000000000e+00 2.5937711317866294e-02 6.4316575890357594e-02  0.0000000000000000e+00 2.6115850275088566e-02 6.3603574006966215e-02  0.0000000000000000e+00 2.6289910070460373e-02 6.2921468662115884e-02  0.0000000000000000e+00 2.6460381186946064e-02 6.2266928085810247e-02  0.0000000000000000e+00 2.6627446265626960e-02 6.1638401097341526e-02  0.0000000000000000e+00 2.6790133370380415e-02 6.1038019309159135e-02  0.0000000000000000e+00 2.6949638933108085e-02 6.0460474158551013e-02  0.0000000000000000e+00 2.7106677213792823e-02 5.9902174493880737e-02  0.0000000000000000e+00 2.7259300065762267e-02 5.9369188801253740e-02  0.0000000000000000e+00 2.7410118454991597e-02 5.8851809798974898e-02  0.0000000000000000e+00 2.7558042728340268e-02 5.8352747754051269e-02  0.0000000000000000e+00 2.7703092354537901e-02 5.7871574066890780e-02  0.0000000000000000e+00 2.7845682773300198e-02 5.7406175564213534e-02  0.0000000000000000e+00 2.7985813713036559e-02 5.6956031901967887e-02  0.0000000000000000e+00 2.8123978183923540e-02 5.6519106123883459e-02  0.0000000000000000e+00 2.8260697017737126e-02 5.6093325542553564e-02  0.0000000000000000e+00 2.8393600273453432e-02 5.5685529211106484e-02  0.0000000000000000e+00 2.8523878396038073e-02 5.5291618661549455e-02  0.0000000000000000e+00 2.8654239703518092e-02 5.4903042743050919e-02  0.0000000000000000e+00 2.8781119695926602e-02 5.4530110184383418e-02  0.0000000000000000e+00 2.8904846281346101e-02 5.4171447359196469e-02  0.0000000000000000e+00 2.9027000949164938e-02 5.3821990453628038e-02  0.0000000000000000e+00 2.9146432351115414e-02 5.3484657449908872e-02  0.0000000000000000e+00 2.9264235330408540e-02 5.3156260533793610e-02  0.0000000000000000e+00 2.9377804368364447e-02 5.2843347173510268e-02  0.0000000000000000e+00 2.9489963131428772e-02 5.2538174053335072e-02  0.0000000000000000e+00 2.9598831871818724e-02 5.2245281122149476e-02  0.0000000000000000e+00 2.9705304081691381e-02 5.1961991046609785e-02  0.0000000000000000e+00 2.9809690025482814e-02 5.1687291103786302e-02  0.0000000000000000e+00 2.9909544198929456e-02 5.1427472764317687e-02  0.0000000000000000e+00 3.0005919893640952e-02 5.1179086078743836e-02  0.0000000000000000e+00 3.0100891516292954e-02 5.0936691720822255e-02  0.0000000000000000e+00 3.0191463696502149e-02 5.0707723592352864e-02  0.0000000000000000e+00 3.0277987557198315e-02 5.0491019451056003e-02  0.0000000000000000e+00 3.0361536193858344e-02 5.0283463507610121e-02  0.0000000000000000e+00 3.0441864226869089e-02 5.0085577102089732e-02  0.0000000000000000e+00 3.0517532249425203e-02 4.9900590488535783e-02  0.0000000000000000e+00 2.9189348248253217e-02 5.3364717417579206e-02  0.0000000000000000e+00 1.9775964617266828e-02 1.0526051759518072e-01  0.0000000000000000e+00 3.0393326964457467e-02 5.0205238229839161e-02  0.0000000000000000e+00 2.1979649093440065e-02 8.5612063838468033e-02  0.0000000000000000e+00 3.0530716637782767e-02 4.9868645968436577e-02  0.0000000000000000e+00 1.8291718680042018e-02 1.2498286359138930e-01  0.0000000000000000e+00 2.8696812062164533e-02 5.4778324182730875e-02  0.0000000000000000e+00 2.6133250814305075e-02 6.3535320748843313e-02  0.0000000000000000e+00 1.7459661651214518e-02 1.4042229400581707e-01  0.0000000000000000e+00 2.0196530316613354e-02 1.0082780681984267e-01  0.0000000000000000e+00 2.8038339206535090e-02 5.6789314904176956e-02  0.0000000000000000e+00 1.8413591721098473e-02 1.2304869942822839e-01  0.0000000000000000e+00 1.9391628315735435e-02 1.0968922750369547e-01  0.0000000000000000e+00 2.7176472194259078e-02 5.9657453816220098e-02  0.0000000000000000e+00 2.1381515587586414e-02 9.0165611933826134e-02  0.0000000000000000e+00 3.0860806494984259e-02 4.9078789661151354e-02  0.0000000000000000e+00 1.7851101591902833e-02 1.3261678505535168e-01  0.0000000000000000e+00 1.7514918697497689e-02 1.3925294272498231e-01  0.0000000000000000e+00 3.1104310411291733e-02 4.8512036796733528e-02  0.0000000000000000e+00 2.6028915311245234e-02 6.3949985618283758e-02  0.0000000000000000e+00 2.2517368570787826e-02 8.1910110394441904e-02  0.0000000000000000e+00 2.4680277620859677e-02 6.9830103176461114e-02  0.0000000000000000e+00 3.1118275303855466e-02 4.8479998118607710e-02  0.0000000000000000e+00 1.7374961519932553e-02 1.4226295986043491e-01  0.0000000000000000e+00 2.3825183087979516e-02 7.4147602430418999e-02  0.0000000000000000e+00 2.3661654664116859e-02 7.5032510723184592e-02  0.0000000000000000e+00 3.1007741513100734e-02 4.8735249796400731e-02  0.0000000000000000e+00 2.9840023824011370e-02 5.1608201699168861e-02  0.0000000000000000e+00 2.0704469747211209e-02 9.5955826046357565e-02  0.0000000000000000e+00 1.7820344112950522e-02 1.3319313541117112e-01  0.0000000000000000e+00 2.7681096418445735e-02 5.7945158097158847e-02  0.0000000000000000e+00 2.9742027797467901e-02 5.1865726984461499e-02  0.0000000000000000e+00 1.7354443849182961e-02 1.4271813103433045e-01  0.0000000000000000e+00 2.4776706293461646e-02 6.9377311804331099e-02  0.0000000000000000e+00 2.2876311296018727e-02 7.9614664788166381e-02  0.0000000000000000e+00 3.0841708839326305e-02 4.9123774993737240e-02  0.0000000000000000e+00 1.8854134455301350e-02 1.1660478114494734e-01  0.0000000000000000e+00 1.9101743194382480e-02 1.1330062084237190e-01  0.0000000000000000e+00 3.0214495461802861e-02 5.0650040327054890e-02  0.0000000000000000e+00 2.8697963536037267e-02 5.4773918775842978e-02  0.0000000000000000e+00 2.1342531432178305e-02 9.0477212593027004e-02  0.0000000000000000e+00 1.7609385565405786e-02 1.3730760964706923e-01  0.0000000000000000e+00 2.6959884584349232e-02 6.0425437906459580e-02  0.0000000000000000e+00 3.0991460548229422e-02 4.8773134425668080e-02  0.0000000000000000e+00 2.8201064986163933e-02 5.6279290149070176e-02  0.0000000000000000e+00 1.7387821603506656e-02 1.4198032758376763e-01  0.0000000000000000e+00 1.8031881195936763e-02 1.2935325879197737e-01  0.0000000000000000e+00 2.5477073631686237e-02 6.6236553343715296e-02  0.0000000000000000e+00 2.0689193492615939e-02 9.6096901254702910e-02  0.0000000000000000e+00 2.9527216662458947e-02 5.2437783747338575e-02  0.0000000000000000e+00 3.0077259376661294e-02 5.0997151623552180e-02  0.0000000000000000e+00 2.6705049578470776e-02 6.1350687464071851e-02  0.0000000000000000e+00 1.7685254207062306e-02 1.3579253261656046e-01  0.0000000000000000e+00 2.5479207201990747e-02 6.6225846656048637e-02  0.0000000000000000e+00 2.0248201014610764e-02 1.0030790185319960e-01  0.0000000000000000e+00 2.9305642541896233e-02 5.3042341834951857e-02  0.0000000000