<?xml version="1.0"?>
<VTKFile type="UnstructuredGrid"  version="0.1"  >
<UnstructuredGrid>
<Piece  NumberOfPoints="4940" NumberOfCells="9650">
<Points>
<DataArray  type="Float64"  NumberOfComponents="3"  format="ascii">500 250 0  0 250 0  250 500 0  250 0 0  256.8885856082646 499.9050767557906 0  263.7719401218049 499.6203791065173 0  270.6448364229772 499.1461232471188 0  277.5020553257866 498.4826693209355 0  284.3383895508592 497.6305211460281 0  291.1486476865662 496.5903258312597 0  297.9276581259182 495.3628732847843 0  304.6702729675493 493.9490956196674 0  311.3713719748657 492.3500664368026 0  318.0258664141369 490.5670000199653 0  324.6287029687753 488.6012504015818 0  331.1748675330201 486.4543103455647 0  337.6593890460416 484.1278102064655 0  344.0773432429536 481.6235166997244 0  350.4238564271474 478.9433315480048 0  356.694109139292 476.0892900492477 0  362.88333985546 473.0635595140469 0  368.9868485575419 469.8684376402048 0  375.0000003153078 466.5063507640667 0  380.9182288257928 462.9798520074548 0  386.7370398729688 459.2916193419558 0  392.4520147244077 455.444453565817 0  398.0588135356345 451.4412761437442 0  403.5531785622926 447.285127045646 0  408.9309374414144 442.9791624087773 0  414.1880064015299 438.5266521049243 0  419.3203932989752 433.9309773069245 0  424.324200661095 429.1956279150535 0  429.1956286596235 424.3241998957182 0  433.9309780058756 419.3203925397119 0  438.5266527445345 414.1880056671062 0  442.9791630130591 408.9309367076756 0  447.2851276060475 403.5531778422888 0  451.4412766621026 398.0588128303826 0  455.4444540361634 392.4520140460735 0  459.2916197786263 386.7370392045948 0  462.9798524073514 380.9182281752347 0  466.5063511234856 374.9999996927758 0  469.8684379657123 368.9868479560565 0  473.0635598144817 362.8833392617846 0  476.0892903190255 356.6941085676214 0  478.9433317963513 350.4238558609745 0  481.6235169154735 344.0773427117675 0  484.12781039012 337.6593885555221 0  486.4543105028062 331.1748670749914 0  488.601250531677 324.6287025528375 0  490.5670001317469 318.0258660188321 0  492.3500665291326 311.3713716102628 0  493.949095695951 304.6702726271575 0  495.3628733416623 297.9276578347343 0  496.5903258712341 291.1486474470129 0  497.6305211749058 284.3383893426084 0  498.4826693388848 277.502055163614 0  499.1461232580606 270.6448362909296 0  499.6203791109319 263.7719400417897 0  499.9050767571306 256.8885855596534 0  499.9050767559877 243.1114143988867 0  499.6203791069493 236.2280598860241 0  499.1461232485393 229.3551635941651 0  498.4826693235677 222.4979446979962 0  497.6305211491849 215.6616104719064 0  496.5903258357701 208.8513523404629 0  495.3628732906988 202.0723419043604 0  493.9490956264813 195.3297270628552 0  492.3500664487791 188.6286280724281 0  490.5670000344809 181.9741336371959 0  488.6012504175981 175.3712970824318 0  486.4543103623226 168.8251325157939 0  484.1278102222298 162.3406109960628 0  481.6235167152198 155.9226567951971 0  478.9433315621651 149.5761436051346 0  476.0892900516498 143.3058908657982 0  473.063559513628 137.1166601437124 0  469.8684376406648 131.0131514433083 0  466.5063507675389 124.9999996907064 0  462.9798520124137 119.0817711822745 0  459.2916193464549 113.2629601339176 0  455.4444535642773 107.5479852733717 0  451.4412761528674 101.9411864767781 0  447.2851270583545 96.44682145403524 0  442.9791624165781 91.06906256805769 0  438.5266521117469 85.81199360630404 0  433.9309773156125 80.67960671046254 0  429.1956279150353 75.67579933888632 0  424.3241998888952 70.80437133373906 0  419.3203925223282 66.06902197812161 0  414.1880056411937 61.47334723289828 0  408.9309366751728 57.0208369601728 0  403.5531778009394 52.71487236176898 0  398.058812796452 48.55872331295853 0  392.4520140187753 44.55554594490843 0  386.7370391799677 40.70838020528396 0  380.9182281475119 37.02014757560744 0  374.9999996718656 33.49364886444181 0  368.9868479340393 30.13156202237255 0  362.8833392380029 26.93644017348339 0  356.6941085456942 23.91070967062674 0  350.4238558420009 21.0566681953261 0  344.0773426899492 18.37648307566465 0  337.6593885328982 15.87218960140942 0  331.1748670549786 13.54568949032341 0  324.6287025315056 11.39874946165088 0  318.0258660010876 9.432999863235466 0  311.3713716017894 7.649933468721599 0  304.6702726190621 6.050904302234756 0  297.9276578269805 4.637126656823085 0  291.148647441857 3.409674127905504 0  284.3383893425031 2.369478825079682 0  277.502055159398 1.517330660648639 0  270.6448362875833 0.853876741662134 0  263.7719400401456 0.3796208889774277 0  256.8885855592052 0.09492324285704967 0  243.1114143979462 0.09492324403817065 0  236.2280598850882 0.3796208931023841 0  229.3551635938215 0.8538767514891958 0  222.4979446968584 1.517330676558146 0  215.6616104703111 2.369478851036291 0  208.8513523382973 3.409674164591252 0  202.0723419066374 4.637126708856528 0  195.3297270659513 6.050904372824903 0  188.628628074828 7.649933550613184 0  181.9741336377093 9.432999965373938 0  175.3712970793675 11.39874958336037 0  168.8251325057572 13.54568964112298 0  162.340610986655 15.87218978129263 0  155.9226567874317 18.37648328793418 0  149.576143602509 21.05666843898663 0  143.3058908718157 23.91070994551046 0  137.1166601505524 26.93644048291054 0  131.0131514451933 30.13156235831508 0  124.9999996848412 33.49364923584736 0  119.0817711715717 37.0201479941652 0  113.2629601211624 40.70838066187849 0  107.5479852622251 44.55554644345162 0  101.9411864693332 48.55872385260452 0  96.44682143286516 52.71487295812284 0  91.06906254351222 57.02083760363669 0  85.81199358272519 61.4733479087879 0  80.67960667988106 66.06902271253972 0  75.67579930062769 70.80437212218331 0  70.80437129287643 75.67580015310926 0  66.06902193673014 80.67960752263491 0  61.47334718684866 85.81199441168215 0  57.02083692524275 91.0690633672404 0  52.71487232786438 96.44682224262129 0  48.55872328070024 101.941187247437 0  44.55554591578033 107.5479860232332 0  40.7083801742321 113.2629608675606 0  37.02014754791168 119.0817718975441 0  33.49364883372994 125.000000381329 0  30.13156199866361 131.0131521097709 0  26.9364401549829 137.1166607985551 0  23.91070965524918 143.3058914868915 0  21.05666818346614 149.576144185037 0  18.37648306853811 155.9226573275967 0  15.8721895918909 162.3406114925245 0  13.54568948170046 168.8251329701392 0  11.39874945301878 175.3712974960928 0  9.432999857087736 181.9741340206533 0  7.649933466342702 188.6286284076045 0  6.050904301250966 195.3297273853278 0  4.637126656808988 202.0723421730917 0  3.409674127767772 208.8513525589684 0  2.369478824521138 215.6616106615248 0  1.517330660909465 222.4979448382452 0  0.8538767414496533 229.355163714981 0  0.3796208887135322 236.2280599646376 0  0.09492324266324204 243.1114144478261 0  0.0949232442452228 256.8885856095658 0  0.3796208935834784 263.7719401236316 0  0.8538767530323526 270.6448364248016 0  1.517330679476544 277.5020553295092 0  2.369478854618649 284.3383895555228 0  3.409674170191892 291.1486476952655 0  4.6371267162381 297.9276581311522 0  6.050904381420935 304.6702729724059 0  7.649933562385399 311.3713719716595 0  9.43299997979841 318.0258664133013 0  11.3987495994252 324.6287029719946 0  13.54568965885832 331.174867545904 0  15.87218979367188 337.6593890464085 0  18.37648329843151 344.0773432384132 0  21.05666844777872 350.423856417535 0  23.91070995156048 356.6941091410045 0  26.93644048988043 362.8833398632205 0  30.13156235982007 368.9868485575877 0  33.49364924138357 375.0000003247478 0  37.0201480006036 380.9182288389023 0  40.70838066758398 386.7370398875706 0  44.55554644477201 392.4520147396792 0  48.55872386086904 398.0588135419111 0  52.71487295981296 403.5531785693063 0  57.02083760525949 408.9309374584583 0  61.47334790862246 414.1880064170849 0  66.06902271205095 419.320393319588 0  70.80437211216579 424.3242006890749 0  75.67580013809859 429.195628692521 0  80.6796075127923 433.930978054209 0  85.81199439754931 438.5266528008431 0  91.06906334717917 442.9791630582355 0  96.44682221438322 447.2851276501571 0  101.9411872243843 451.441276702356 0  107.5479859945825 455.4444540643537 0  113.2629608446994 459.2916198108319 0  119.0817718768376 462.9798524393601 0  125.0000003647644 466.5063511567065 0  131.0131521012763 469.8684379967393 0  137.1166607840049 473.0635598376539 0  143.3058914748804 476.0892903390826 0  149.5761441732679 478.9433318113714 0  155.9226573130112 481.6235169255377 0  162.3406114779862 484.1278104026658 0  168.8251329570439 486.4543105138039 0  175.3712974805475 488.601250542119 0  181.9741340135204 490.5670001408953 0  188.6286284005059 492.3500665318597 0  195.3297273788229 493.9490956972913 0  202.0723421640089 495.3628733414168 0  208.8513525529672 496.5903258712308 0  215.6616106544547 497.6305211744985 0  222.4979448327038 498.4826693384772 0  229.3551637102845 499.1461232581612 0  236.2280599621369 499.6203791111485 0  243.1114144470173 499.9050767573145 0  155.2373389820306 474.8197567317462 0  25.36256300907667 153.9152755065208 0  432.3709625126712 412.6214396304305 0  6.013151705810699 246.637913163471 0  246.6379131630491 493.986848294322 0  338.6995838441862 22.68244767887072 0  477.3175523131281 338.6995838660569 0  493.9868482700757 246.6379131399102 0  246.6201155078769 6.218451882810491 0  417.6179310263282 72.7156044707053 0  102.2232990934413 445.0100869616822 0  63.66330858966404 92.20354579482142 0  391.3105220491464 50.73522820883105 0  72.79295043967942 418.0702734974704 0  448.290574428537 108.25674339002 0  402.4604651193511 440.7462829841712 0  97.55317348421397 59.11376320116034 0  136.7376477664901 33.58246472647134 0  363.3288394375288 465.6947312928271 0  44.0678766556007 381.0860953771871 0  469.6905266180034 142.3890690100806 0  22.68244791668644 338.6995843487432 0  338.699584349159 477.317552078365 0  173.389488083762 18.6681884918202 0  483.4809734778481 179.7121987795732 0  13.50237455842738 306.4709525540879 0  305.9825168523021 487.24416992
[...]
<PointData  Vectors="f_12"> 
<DataArray  type="Float64"  Name="f_12"  NumberOfComponents="3" format="ascii">0.0000000000000000e+00 5.7394421852851332e-02 9.7573763734208185e-01  0.0000000000000000e+00 1.0326321649444371e-01 1.0856243606309399e+00  0.0000000000000000e+00 3.5428524388175932e-02 8.5272411111635238e-01  0.0000000000000000e+00 2.1781744954724500e-01 1.1382914418980949e+00  0.0000000000000000e+00 3.5197359869950061e-02 8.5080741774351976e-01  0.0000000000000000e+00 3.4987010461510828e-02 8.4904419310363854e-01  0.0000000000000000e+00 3.4783053859536867e-02 8.4731794980651831e-01  0.0000000000000000e+00 3.4596465452675647e-02 8.4572439462149240e-01  0.0000000000000000e+00 3.4422178610146112e-02 8.4422294087326588e-01  0.0000000000000000e+00 3.4261026836368391e-02 8.4282315675897590e-01  0.0000000000000000e+00 3.4112691004236230e-02 8.4152525557092761e-01  0.0000000000000000e+00 3.3976085326755300e-02 8.4032163553001771e-01  0.0000000000000000e+00 3.3852445114181978e-02 8.3922509735054074e-01  0.0000000000000000e+00 3.3742635035487710e-02 8.3824589919626402e-01  0.0000000000000000e+00 3.3655157960181092e-02 8.3746159012832888e-01  0.0000000000000000e+00 3.3563437469188752e-02 8.3663615235226829e-01  0.0000000000000000e+00 3.3509017232274535e-02 8.3614403382219971e-01  0.0000000000000000e+00 3.3454264574173206e-02 8.3564815682166849e-01  0.0000000000000000e+00 3.3417447533356202e-02 8.3531386495768845e-01  0.0000000000000000e+00 3.3394224776677722e-02 8.3510274485495473e-01  0.0000000000000000e+00 3.3383623053629810e-02 8.3500590367996352e-01  0.0000000000000000e+00 3.3396863303620454e-02 8.3512630825014555e-01  0.0000000000000000e+00 3.3427485996645086e-02 8.3540498061784252e-01  0.0000000000000000e+00 3.3465545913453847e-02 8.3575039168770660e-01  0.0000000000000000e+00 3.3522239352332485e-02 8.3626397385204165e-01  0.0000000000000000e+00 3.3602481068682508e-02 8.3698792874621697e-01  0.0000000000000000e+00 3.3708378116523233e-02 8.3793895198953727e-01  0.0000000000000000e+00 3.3823080409412676e-02 8.3896374038041643e-01  0.0000000000000000e+00 3.3957272522512606e-02 8.4015507335673478e-01  0.0000000000000000e+00 3.4122968989876219e-02 8.4161530908244753e-01  0.0000000000000000e+00 3.4302693446582148e-02 8.4318635572633471e-01  0.0000000000000000e+00 3.4508057497530054e-02 8.4496406573788430e-01  0.0000000000000000e+00 3.4737976847724332e-02 8.4693467714133797e-01  0.0000000000000000e+00 3.4987535878731837e-02 8.4904907506163452e-01  0.0000000000000000e+00 3.5273370610073088e-02 8.5143973505828441e-01  0.0000000000000000e+00 3.5583657612945942e-02 8.5400036412250457e-01  0.0000000000000000e+00 3.5913799771934214e-02 8.5668445120041747e-01  0.0000000000000000e+00 3.6282050282853806e-02 8.5963079860144576e-01  0.0000000000000000e+00 3.6690380915261049e-02 8.6284194950073190e-01  0.0000000000000000e+00 3.7124039142356229e-02 8.6618975606856119e-01  0.0000000000000000e+00 3.7583258280539225e-02 8.6966642215226997e-01  0.0000000000000000e+00 3.8086339163569995e-02 8.7339696567412883e-01  0.0000000000000000e+00 3.8634399080342045e-02 8.7737289540697116e-01  0.0000000000000000e+00 3.9216172042007010e-02 8.8149605496940786e-01  0.0000000000000000e+00 3.9843151255413302e-02 8.8583148931914468e-01  0.0000000000000000e+00 4.0514138191804737e-02 8.9035315853377883e-01  0.0000000000000000e+00 4.1229004402857788e-02 8.9504187015059777e-01  0.0000000000000000e+00 4.1987539963924694e-02 8.9988196179653956e-01  0.0000000000000000e+00 4.2810751460966599e-02 9.0497671718078787e-01  0.0000000000000000e+00 4.3679883365660650e-02 9.1019679190524960e-01  0.0000000000000000e+00 4.4603439635513352e-02 9.1556642876621042e-01  0.0000000000000000e+00 4.5584053552917503e-02 9.2108463617757408e-01  0.0000000000000000e+00 4.6622095009216338e-02 9.2672876073754717e-01  0.0000000000000000e+00 4.7730118607468681e-02 9.3254398359688195e-01  0.0000000000000000e+00 4.8899453793149091e-02 9.3845962343480049e-01  0.0000000000000000e+00 5.0129840129735009e-02 9.4445495699047333e-01  0.0000000000000000e+00 5.1435079264279801e-02 9.5057155573274799e-01  0.0000000000000000e+00 5.2809379956904857e-02 9.5676303803394547e-01  0.0000000000000000e+00 5.4252631168822750e-02 9.6299824029944348e-01  0.0000000000000000e+00 5.5743420207628326e-02 9.6921651991039071e-01  0.0000000000000000e+00 5.9055737430956178e-02 9.8205639021817581e-01  0.0000000000000000e+00 6.0804714924014271e-02 9.8841648515813729e-01  0.0000000000000000e+00 6.2625764718691718e-02 9.9474629849492313e-01  0.0000000000000000e+00 6.4547363959633328e-02 1.0011122095689144e+00  0.0000000000000000e+00 6.6542845733464404e-02 1.0074270984228151e+00  0.0000000000000000e+00 6.8623322345402360e-02 1.0136951372623986e+00  0.0000000000000000e+00 7.0787410154505362e-02 1.0199046132707419e+00  0.0000000000000000e+00 7.3038639506213560e-02 1.0260468611475062e+00  0.0000000000000000e+00 7.5373034688946447e-02 1.0321006756441520e+00  0.0000000000000000e+00 7.7788617459063916e-02 1.0380506222551846e+00  0.0000000000000000e+00 8.0302140140168565e-02 1.0439190128543923e+00  0.0000000000000000e+00 8.2887484965986954e-02 1.0496434676622213e+00  0.0000000000000000e+00 8.5566522058772479e-02 1.0552605498265160e+00  0.0000000000000000e+00 8.8334422593973810e-02 1.0607481106040162e+00  0.0000000000000000e+00 9.1188973148056490e-02 1.0660937137135191e+00  0.0000000000000000e+00 9.4124341748651932e-02 1.0712820248618531e+00  0.0000000000000000e+00 9.7141945385430348e-02 1.0763079387951566e+00  0.0000000000000000e+00 1.0023946960082139e-01 1.0811643455239881e+00  0.0000000000000000e+00 1.0341823329868088e-01 1.0858489751626412e+00  0.0000000000000000e+00 1.0667200744541790e-01 1.0903496524448835e+00  0.0000000000000000e+00 1.0998942969949670e-01 1.0946506968561742e+00  0.0000000000000000e+00 1.1337614414938761e-01 1.0987557868446478e+00  0.0000000000000000e+00 1.1682513240668831e-01 1.1026623428645910e+00  0.0000000000000000e+00 1.2032129563676656e-01 1.1063543393428910e+00  0.0000000000000000e+00 1.2386819177453842e-01 1.1098386037215602e+00  0.0000000000000000e+00 1.2745456404281955e-01 1.1131091331518577e+00  0.0000000000000000e+00 1.3107258462279398e-01 1.1161645412538612e+00  0.0000000000000000e+00 1.3471316309485146e-01 1.1190057973591601e+00  0.0000000000000000e+00 1.3836965197734039e-01 1.1216331426863853e+00  0.0000000000000000e+00 1.4203559115456418e-01 1.1240537283777461e+00  0.0000000000000000e+00 1.4569985325032089e-01 1.1262673283535682e+00  0.0000000000000000e+00 1.4935557521891002e-01 1.1282806949291211e+00  0.0000000000000000e+00 1.5299773276247267e-01 1.1301017111836409e+00  0.0000000000000000e+00 1.5661631204789317e-01 1.1317358508932618e+00  0.0000000000000000e+00 1.6018921243406262e-01 1.1331849530865905e+00  0.0000000000000000e+00 1.6373359631785434e-01 1.1344667407012630e+00  0.0000000000000000e+00 1.6723857776918497e-01 1.1355900888637591e+00  0.0000000000000000e+00 1.7066959086513173e-01 1.1365532323885126e+00  0.0000000000000000e+00 1.7405446343703374e-01 1.1373748283213636e+00  0.0000000000000000e+00 1.7739190734177959e-01 1.1380697681720051e+00  0.0000000000000000e+00 1.8062496550246857e-01 1.1386300877162101e+00  0.0000000000000000e+00 1.8378021676838219e-01 1.1390791415294368e+00  0.0000000000000000e+00 1.8684865743196324e-01 1.1394208647531487e+00  0.0000000000000000e+00 1.8983395488771621e-01 1.1396700510042195e+00  0.0000000000000000e+00 1.9271736609758239e-01 1.1398323784126412e+00  0.0000000000000000e+00 1.9549845974788069e-01 1.1399187814130713e+00  0.0000000000000000e+00 1.9816816362251463e-01 1.1399380852925503e+00  0.0000000000000000e+00 2.0071874085793995e-01 1.1398996319458861e+00  0.0000000000000000e+00 2.0315701209911047e-01 1.1398123644770624e+00  0.0000000000000000e+00 2.0547881808658364e-01 1.1396833211408393e+00  0.0000000000000000e+00 2.0767045055509256e-01 1.1395224409788283e+00  0.0000000000000000e+00 2.0971810781335629e-01 1.1393374765018334e+00  0.0000000000000000e+00 2.1162040390533574e-01 1.1391365523992396e+00  0.0000000000000000e+00 2.1339483729489325e-01 1.1389244485435102e+00  0.0000000000000000e+00 2.1501688083622425e-01 1.1387090464015985e+00  0.0000000000000000e+00 2.1649779475129960e-01 1.1384957535249043e+00  0.0000000000000000e+00 2.1894025798073691e-01 1.1381079136970740e+00  0.0000000000000000e+00 2.2009268138574095e-01 1.1379115818365437e+00  0.0000000000000000e+00 2.2088506863943452e-01 1.1377683284044378e+00  0.0000000000000000e+00 2.2159169385688429e-01 1.1376382943078811e+00  0.0000000000000000e+00 2.2215140430633468e-01 1.1375327960512578e+00  0.0000000000000000e+00 2.2253627604493001e-01 1.1374589471063636e+00  0.0000000000000000e+00 2.2275601379526364e-01 1.1374162728191077e+00  0.0000000000000000e+00 2.2282784759237459e-01 1.1374022711336698e+00  0.0000000000000000e+00 2.2273596821677377e-01 1.1374201394369838e+00  0.0000000000000000e+00 2.2255604272770388e-01 1.1374552360865542e+00  0.0000000000000000e+00 2.2211195929746905e-01 1.1375403521478951e+00  0.0000000000000000e+00 2.2154491468475743e-01 1.1376469860678213e+00  0.0000000000000000e+00 2.2082708181399346e-01 1.1377790551700677e+00  0.0000000000000000e+00 2.1998899497951743e-01 1.1379283530690576e+00  0.0000000000000000e+00 2.1898692923464805e-01 1.1381001488396727e+00  0.0000000000000000e+00 2.1781070823434318e-01 1.1382926575902836e+00  0.0000000000000000e+00 2.1650890712835555e-01 1.1384939342071521e+00  0.0000000000000000e+00 2.1507243507511789e-01 1.1387013760472695e+00  0.0000000000000000e+00 2.1350478667581296e-01 1.1389101500585950e+00  0.0000000000000000e+00 2.1180463352792747e-01 1.1391157405213577e+00  0.0000000000000000e+00 2.0996361523880328e-01 1.1393131238759737e+00  0.0000000000000000e+00 2.0799464728761660e-01 1.1394953780461234e+00  0.0000000000000000e+00 2.0591706791642914e-01 1.1396543516546216e+00  0.0000000000000000e+00 2.0372985025953655e-01 1.1397844323536046e+00  0.0000000000000000e+00 2.0143080255262652e-01 1.1398790555249805e+00  0.0000000000000000e+00 1.9902602025395666e-01 1.1399310877561271e+00  0.0000000000000000e+00 1.9651952165094105e-01 1.1399330792366178e+00  0.0000000000000000e+00 1.9391866928712428e-01 1.1398777865939600e+00  0.0000000000000000e+00 1.9122665521092078e-01 1.1397574247985400e+00  0.0000000000000000e+00 1.8845113919438800e-01 1.1395647018279811e+00  0.0000000000000000e+00 1.8559729574598857e-01 1.1392918622968948e+00  0.0000000000000000e+00 1.8267636277637780e-01 1.1389326333586698e+00  0.0000000000000000e+00 1.7969219252249946e-01 1.1384787354851593e+00  0.0000000000000000e+00 1.7664098172623582e-01 1.1379228970713327e+00  0.0000000000000000e+00 1.7352984176763706e-01 1.1372561970429815e+00  0.0000000000000000e+00 1.7036878777350911e-01 1.1364731088445530e+00  0.0000000000000000e+00 1.6716659890139859e-01 1.1355675563966261e+00  0.0000000000000000e+00 1.6393032386145373e-01 1.1345337962255257e+00  0.0000000000000000e+00 1.6066380010103612e-01 1.1333644782314396e+00  0.0000000000000000e+00 1.5737488883283288e-01 1.1320564692203090e+00  0.0000000000000000e+00 1.5404887474924908e-01 1.1305922935793928e+00  0.0000000000000000e+00 1.5071997084079528e-01 1.1289828673951749e+00  0.0000000000000000e+00 1.4739132247852729e-01 1.1272216624141964e+00  0.0000000000000000e+00 1.4405417117605984e-01 1.1252959870915016e+00  0.0000000000000000e+00 1.4072150557353613e-01 1.1232088199379702e+00  0.0000000000000000e+00 1.3739878501834676e-01 1.1209554936899311e+00  0.0000000000000000e+00 1.3410344092558193e-01 1.1185449795360805e+00  0.0000000000000000e+00 1.3082409270111472e-01 1.1159606226601582e+00  0.0000000000000000e+00 1.2757366283436161e-01 1.1132123844593595e+00  0.0000000000000000e+00 1.2436664812885177e-01 1.1103045692906137e+00  0.0000000000000000e+00 1.2119290838846172e-01 1.1072322843456848e+00  0.0000000000000000e+00 1.1806319887018082e-01 1.1039966737711624e+00  0.0000000000000000e+00 1.1498785829045007e-01 1.1006131280530185e+00  0.0000000000000000e+00 1.1196649113570563e-01 1.0970776727493292e+00  0.0000000000000000e+00 1.0900104249579326e-01 1.0933949638720637e+00  0.0000000000000000e+00 1.0610199196938959e-01 1.0895783359180733e+00  0.0000000000000000e+00 1.0048986860149806e-01 1.0815416054751072e+00  0.0000000000000000e+00 9.7789639437194029e-02 1.0773445424664154e+00  0.0000000000000000e+00 9.5152070268720260e-02 1.0730252865049661e+00  0.0000000000000000e+00 9.2589094712950168e-02 1.0686033568553686e+00  0.0000000000000000e+00 9.0097786754347972e-02 1.0640836285471591e+00  0.0000000000000000e+00 8.7677121987641757e-02 1.0594693932509349e+00  0.0000000000000000e+00 8.5328010154353359e-02 1.0547699767526360e+00  0.0000000000000000e+00 8.3051096347118991e-02 1.0499931669131291e+00  0.0000000000000000e+00 8.0845007461500154e-02 1.0451453452582236e+00  0.0000000000000000e+00 7.8709623744519230e-02 1.0402334324066829e+00  0.0000000000000000e+00 7.6644756457407953e-02 1.0352681306753533e+00  0.0000000000000000e+00 7.4654480365273210e-02 1.0302663073044831e+00  0.0000000000000000e+00 7.2727800842383117e-02 1.0252121274835577e+00  0.0000000000000000e+00 7.0866261332615602e-02 1.0201198641805853e+00  0.0000000000000000e+00 6.9080363804493061e-02 1.0150279323939271e+00  0.0000000000000000e+00 6.7344474773844351e-02 1.0098735548343525e+00  0.0000000000000000e+00 6.5673607863614300e-02 1.0047118981752423e+00  0.0000000000000000e+00 6.4082453745414547e-02 9.9959624897311672e-01  0.0000000000000000e+00 6.2545741357012241e-02 9.9446863522531337e-01  0.0000000000000000e+00 6.1070817895525591e-02 9.8935609485657117e-01  0.0000000000000000e+00 5.9653576042470569e-02 9.8426173141196571e-01  0.0000000000000000e+00 5.8295115120753603e-02 9.7919986133292802e-01  0.0000000000000000e+00 5.6991125280898884e-02 9.7416670876527178e-01  0.0000000000000000e+00 5.5739874140379779e-02 9.6916812432658528e-01  0.0000000000000000e+00 5.4549028830131109e-02 9.6424874879431866e-01  0.0000000000000000e+00 5.3408386373035570e-02 9.5937839206061404e-01  0.0000000000000000e+00 5.2312476092962870e-02 9.5454976364738253e-01  0.0000000000000000e+00 5.1275798318478068e-02 9.4983494350509545e-01  0.0000000000000000e+00 5.0278252068687718e-02 9.4515957272713846e-01  0.0000000000000000e+00 4.9327439378085404e-02 9.4056761578518500e-01  0.0000000000000000e+00 4.8422405915406239e-02 9.3607006615839183e-01  0.0000000000000000e+00 4.7559164855480646e-02 9.3165767617803918e-01  0.0000000000000000e+00 4.6736688585294450e-02 9.2733753997552415e-01  0.0000000000000000e+00 4.5950673487697068e-02 9.2309793665094142e-01  0.0000000000000000e+00 4.5196887460197871e-02 9.1892556806609826e-01  0.0000000000000000e+00 4.4488117099748689e-02 9.1490343940378938e-01  0.0000000000000000e+00 4.3815205522315041e-02 9.1099136789067303e-01  0.0000000000000000e+00 4.3161668965923231e-02 9.0710135249084722e-01  0.0000000000000000e+00 4.2545921282297255e-02 9.0335185119369266e-01  0.0000000000000000e+00 4.1964161264038367e-02 8.9973051043974794e-01  0.0000000000000000e+00 4.1406338687384872e-02 8.9618350214296771e-01  0.0000000000000000e+00 4.0876752172833541e-02 8.9274561133152464e-01  0.0000000000000000e+00 4.0368676664465170e-02 8.8938133529691821e-01  0.0000000000000000e+00 3.9892588708167767e-02 8.8616666036129565e-01  0.0000000000000000e+00 3.9434037868322606e-02 8.8301324184671826e-01  0.0000000000000000e+00 3.8999942904316819e-02 8.7997393939465651e-01  0.0000000000000000e+00 3.8585115691769027e-02 8.7701738500707893e-01  0.0000000000000000e+00 3.8187006462367772e-02 8.7413221238933125e-01  0.0000000000000000e+00 3.7814469157249377e-02 8.7138997913031824e-01  0.0000000000000000e+00 3.7461707162557645e-02 8.6875145083807070e-01  0.0000000000000000e+00 3.7119541834675786e-02 8.6615430166637730e-01  0.0000000000000000e+00 3.6798697120535399e-02 8.6368321978416807e-01  0.0000000000000000e+00 3.6496545213894456e-02 8.6132475169530776e-01  0.0000000000000000e+00 3.6208240072820454e-02 8.5904331731540640e-01  0.0000000000000000e+00 3.5933751262506024e-02 8.5684496372898022e-01  0.0000000000000000e+00 3.5677640328289448e-02 8.5476765488910156e-01  0.0000000000000000e+00 4.0699055905012285e-02 8.9157643758550797e-01  0.0000000000000000e+00 1.4953953562323288e-01 1.1283761185186660e+00  0.0000000000000000e+00 3.5224084409129802e-02 8.5103161716855857e-01  0.0000000000000000e+00 1.0471442904082498e-01 1.0876731017868295e+00  0.0000000000000000e+00 3.5634974413875461e-02 8.5442021852145700e-01  0.0000000000000000e+00 1.8812787811778095e-01 1.1395376281101999e+00  0.0000000000000000e+00 4.1708034946631049e-02 8.9811405394899346e-01  0.0000000000000000e+00 5.8301115302638026e-02 9.7924563870049763e-01  0.0000000000000000e+00 2.1808913879140035e-01 1.1382490007913215e+00  0.0000000000000000e+00 1.4019586815419577e-01 1.1228635838268384e+00  0.0000000000000000e+00 4.6443512642322202e-02 9.2576826071365215e-01  0.0000000000000000e+00 1.8395310952612376e-01 1.1390992983287940e+00  0.0000000000000000e+00 1.5870307959735674e-01 1.1326015661405806e+00  0.0000000000000000e+00 5.1845044875351486e-02 9.5244206887448413e-01  0.0000000000000000e+00 1.1516665288746723e-01 1.1008183619918732e+00  0.0000000000000000e+00 3.3960324693486484e-02 8.4018251171402947e-01  0.0000000000000000e+00 2.0246253959840585e-01 1.1398420018190454e+00  0.0000000000000000e+00 2.1552233113181365e-01 1.1386381061483863e+00  0.0000000000000000e+00 3.3473441719306871e-02 8.3582410257065598e-01  0.0000000000000000e+00 6.0352220965078258e-02 9.8679425358942885e-01  0.0000000000000000e+00 9.5749926667404353e-02 1.0740255803725418e+00  0.0000000000000000e+00 7.1876575479180499e-02 1.0229169669467566e+00  0.0000000000000000e+00 3.3555917294991043e-02 8.3656831790345754e-01  0.0000000000000000e+00 2.2143929093483211e-01 1.1376672058269888e+00  0.0000000000000000e+00 7.9390684090709374e-02 1.0418284562697882e+00  0.0000000000000000e+00 8.2035629848034086e-02 1.0477886561081258e+00  0.0000000000000000e+00 3.4010983313130037e-02 8.4063016493310294e-01  0.0000000000000000e+00 3.8080295067446431e-02 8.7335311638560653e-01  0.0000000000000000e+00 1.2917716618304284e-01 1.1145896093783743e+00  0.0000000000000000e+00 2.0404946206107208e-01 1.1397677459421456e+00  0.0000000000000000e+00 4.7276503057197238e-02 9.3019077799393035e-01  0.0000000000000000e+00 3.7351185727866609e-02 8.6791753121707438e-01  0.0000000000000000e+00 2.2239842960266182e-01 1.1374855472842524e+00  0.0000000000000000e+00 6.9938496807533043e-02 1.0175039078904671e+00  0.0000000000000000e+00 9.1402545729073970e-02 1.0664788416486766e+00  0.0000000000000000e+00 3.4588174161380283e-02 8.4565326774633942e-01  0.0000000000000000e+00 1.7212639834933988e-01 1.1369201524747372e+00  0.0000000000000000e+00 1.6543131197145924e-01 1.1350281817336585e+00  0.0000000000000000e+00 3.6722651900077084e-02 8.6309321493349489e-01  0.0000000000000000e+00 4.2956965947797104e-02 9.0586823413033835e-01  0.0000000000000000e+00 1.1621804231952566e-01 1.1019929546989999e+00  0.0000000000000000e+00 2.1207575995711553e-01 1.1390844454816171e+00  0.0000000000000000e+00 5.2071298084570075e-02 9.5346614054065748e-01  0.0000000000000000e+00 3.3674162963738388e-02 8.3763298475971315e-01  0.0000000000000000e+00 4.4252266964615206e-02 9.1354675418104747e-01  0.0000000000000000e+00 2.2103823725046592e-01 1.1377405429262111e+00  0.0000000000000000e+00 1.9656627688616735e-01 1.1399339410005720e+00  0.0000000000000000e+00 6.3718120492238448e-02 9.9840962481471951e-01  0.0000000000000000e+00 1.2940135885799234e-01 1.1147808340648211e+00  0.0000000000000000e+00 3.9293363690383214e-02 8.8203289817263553e-01  0.0000000000000000e+00 3.6208386804980702e-02 8.5904853686017246e-01  0.0000000000000000e+00 5.5180432453004566e-02 9.6687875516301702e-01  0.0000000000000000e+00 2.0871168878333315e-01 1.1394321331346831e+00  0.0000000000000000e+00 6.4851492585549619e-02 1.0020969847586296e+00  0.0000000000000000e+00 1.3901451519021751e-01 1.1220698837257539e+00  0.0000000000000000e+00 3.9017271808556825e-02 8.8009800908077318e-01  0.0000000000