<?xml version="1.0"?>
<VTKFile type="UnstructuredGrid"  version="0.1"  >
<UnstructuredGrid>
<Piece  NumberOfPoints="4940" NumberOfCells="9650">
<Points>
<DataArray  type="Float64"  NumberOfComponents="3"  format="ascii">500 250 0  0 250 0  250 500 0  250 0 0  256.8885856082646 499.9050767557906 0  263.7719401218049 499.6203791065173 0  270.6448364229772 499.1461232471188 0  277.5020553257866 498.4826693209355 0  284.3383895508592 497.6305211460281 0  291.1486476865662 496.5903258312597 0  297.9276581259182 495.3628732847843 0  304.6702729675493 493.9490956196674 0  311.3713719748657 492.3500664368026 0  318.0258664141369 490.5670000199653 0  324.6287029687753 488.6012504015818 0  331.1748675330201 486.4543103455647 0  337.6593890460416 484.1278102064655 0  344.0773432429536 481.6235166997244 0  350.4238564271474 478.9433315480048 0  356.694109139292 476.0892900492477 0  362.88333985546 473.0635595140469 0  368.9868485575419 469.8684376402048 0  375.0000003153078 466.5063507640667 0  380.9182288257928 462.9798520074548 0  386.7370398729688 459.2916193419558 0  392.4520147244077 455.444453565817 0  398.0588135356345 451.4412761437442 0  403.5531785622926 447.285127045646 0  408.9309374414144 442.9791624087773 0  414.1880064015299 438.5266521049243 0  419.3203932989752 433.9309773069245 0  424.324200661095 429.1956279150535 0  429.1956286596235 424.3241998957182 0  433.9309780058756 419.3203925397119 0  438.5266527445345 414.1880056671062 0  442.9791630130591 408.9309367076756 0  447.2851276060475 403.5531778422888 0  451.4412766621026 398.0588128303826 0  455.4444540361634 392.4520140460735 0  459.2916197786263 386.7370392045948 0  462.9798524073514 380.9182281752347 0  466.5063511234856 374.9999996927758 0  469.8684379657123 368.9868479560565 0  473.0635598144817 362.8833392617846 0  476.0892903190255 356.6941085676214 0  478.9433317963513 350.4238558609745 0  481.6235169154735 344.0773427117675 0  484.12781039012 337.6593885555221 0  486.4543105028062 331.1748670749914 0  488.601250531677 324.6287025528375 0  490.5670001317469 318.0258660188321 0  492.3500665291326 311.3713716102628 0  493.949095695951 304.6702726271575 0  495.3628733416623 297.9276578347343 0  496.5903258712341 291.1486474470129 0  497.6305211749058 284.3383893426084 0  498.4826693388848 277.502055163614 0  499.1461232580606 270.6448362909296 0  499.6203791109319 263.7719400417897 0  499.9050767571306 256.8885855596534 0  499.9050767559877 243.1114143988867 0  499.6203791069493 236.2280598860241 0  499.1461232485393 229.3551635941651 0  498.4826693235677 222.4979446979962 0  497.6305211491849 215.6616104719064 0  496.5903258357701 208.8513523404629 0  495.3628732906988 202.0723419043604 0  493.9490956264813 195.3297270628552 0  492.3500664487791 188.6286280724281 0  490.5670000344809 181.9741336371959 0  488.6012504175981 175.3712970824318 0  486.4543103623226 168.8251325157939 0  484.1278102222298 162.3406109960628 0  481.6235167152198 155.9226567951971 0  478.9433315621651 149.5761436051346 0  476.0892900516498 143.3058908657982 0  473.063559513628 137.1166601437124 0  469.8684376406648 131.0131514433083 0  466.5063507675389 124.9999996907064 0  462.9798520124137 119.0817711822745 0  459.2916193464549 113.2629601339176 0  455.4444535642773 107.5479852733717 0  451.4412761528674 101.9411864767781 0  447.2851270583545 96.44682145403524 0  442.9791624165781 91.06906256805769 0  438.5266521117469 85.81199360630404 0  433.9309773156125 80.67960671046254 0  429.1956279150353 75.67579933888632 0  424.3241998888952 70.80437133373906 0  419.3203925223282 66.06902197812161 0  414.1880056411937 61.47334723289828 0  408.9309366751728 57.0208369601728 0  403.5531778009394 52.71487236176898 0  398.058812796452 48.55872331295853 0  392.4520140187753 44.55554594490843 0  386.7370391799677 40.70838020528396 0  380.9182281475119 37.02014757560744 0  374.9999996718656 33.49364886444181 0  368.9868479340393 30.13156202237255 0  362.8833392380029 26.93644017348339 0  356.6941085456942 23.91070967062674 0  350.4238558420009 21.0566681953261 0  344.0773426899492 18.37648307566465 0  337.6593885328982 15.87218960140942 0  331.1748670549786 13.54568949032341 0  324.6287025315056 11.39874946165088 0  318.0258660010876 9.432999863235466 0  311.3713716017894 7.649933468721599 0  304.6702726190621 6.050904302234756 0  297.9276578269805 4.637126656823085 0  291.148647441857 3.409674127905504 0  284.3383893425031 2.369478825079682 0  277.502055159398 1.517330660648639 0  270.6448362875833 0.853876741662134 0  263.7719400401456 0.3796208889774277 0  256.8885855592052 0.09492324285704967 0  243.1114143979462 0.09492324403817065 0  236.2280598850882 0.3796208931023841 0  229.3551635938215 0.8538767514891958 0  222.4979446968584 1.517330676558146 0  215.6616104703111 2.369478851036291 0  208.8513523382973 3.409674164591252 0  202.0723419066374 4.637126708856528 0  195.3297270659513 6.050904372824903 0  188.628628074828 7.649933550613184 0  181.9741336377093 9.432999965373938 0  175.3712970793675 11.39874958336037 0  168.8251325057572 13.54568964112298 0  162.340610986655 15.87218978129263 0  155.9226567874317 18.37648328793418 0  149.576143602509 21.05666843898663 0  143.3058908718157 23.91070994551046 0  137.1166601505524 26.93644048291054 0  131.0131514451933 30.13156235831508 0  124.9999996848412 33.49364923584736 0  119.0817711715717 37.0201479941652 0  113.2629601211624 40.70838066187849 0  107.5479852622251 44.55554644345162 0  101.9411864693332 48.55872385260452 0  96.44682143286516 52.71487295812284 0  91.06906254351222 57.02083760363669 0  85.81199358272519 61.4733479087879 0  80.67960667988106 66.06902271253972 0  75.67579930062769 70.80437212218331 0  70.80437129287643 75.67580015310926 0  66.06902193673014 80.67960752263491 0  61.47334718684866 85.81199441168215 0  57.02083692524275 91.0690633672404 0  52.71487232786438 96.44682224262129 0  48.55872328070024 101.941187247437 0  44.55554591578033 107.5479860232332 0  40.7083801742321 113.2629608675606 0  37.02014754791168 119.0817718975441 0  33.49364883372994 125.000000381329 0  30.13156199866361 131.0131521097709 0  26.9364401549829 137.1166607985551 0  23.91070965524918 143.3058914868915 0  21.05666818346614 149.576144185037 0  18.37648306853811 155.9226573275967 0  15.8721895918909 162.3406114925245 0  13.54568948170046 168.8251329701392 0  11.39874945301878 175.3712974960928 0  9.432999857087736 181.9741340206533 0  7.649933466342702 188.6286284076045 0  6.050904301250966 195.3297273853278 0  4.637126656808988 202.0723421730917 0  3.409674127767772 208.8513525589684 0  2.369478824521138 215.6616106615248 0  1.517330660909465 222.4979448382452 0  0.8538767414496533 229.355163714981 0  0.3796208887135322 236.2280599646376 0  0.09492324266324204 243.1114144478261 0  0.0949232442452228 256.8885856095658 0  0.3796208935834784 263.7719401236316 0  0.8538767530323526 270.6448364248016 0  1.517330679476544 277.5020553295092 0  2.369478854618649 284.3383895555228 0  3.409674170191892 291.1486476952655 0  4.6371267162381 297.9276581311522 0  6.050904381420935 304.6702729724059 0  7.649933562385399 311.3713719716595 0  9.43299997979841 318.0258664133013 0  11.3987495994252 324.6287029719946 0  13.54568965885832 331.174867545904 0  15.87218979367188 337.6593890464085 0  18.37648329843151 344.0773432384132 0  21.05666844777872 350.423856417535 0  23.91070995156048 356.6941091410045 0  26.93644048988043 362.8833398632205 0  30.13156235982007 368.9868485575877 0  33.49364924138357 375.0000003247478 0  37.0201480006036 380.9182288389023 0  40.70838066758398 386.7370398875706 0  44.55554644477201 392.4520147396792 0  48.55872386086904 398.0588135419111 0  52.71487295981296 403.5531785693063 0  57.02083760525949 408.9309374584583 0  61.47334790862246 414.1880064170849 0  66.06902271205095 419.320393319588 0  70.80437211216579 424.3242006890749 0  75.67580013809859 429.195628692521 0  80.6796075127923 433.930978054209 0  85.81199439754931 438.5266528008431 0  91.06906334717917 442.9791630582355 0  96.44682221438322 447.2851276501571 0  101.9411872243843 451.441276702356 0  107.5479859945825 455.4444540643537 0  113.2629608446994 459.2916198108319 0  119.0817718768376 462.9798524393601 0  125.0000003647644 466.5063511567065 0  131.0131521012763 469.8684379967393 0  137.1166607840049 473.0635598376539 0  143.3058914748804 476.0892903390826 0  149.5761441732679 478.9433318113714 0  155.9226573130112 481.6235169255377 0  162.3406114779862 484.1278104026658 0  168.8251329570439 486.4543105138039 0  175.3712974805475 488.601250542119 0  181.9741340135204 490.5670001408953 0  188.6286284005059 492.3500665318597 0  195.3297273788229 493.9490956972913 0  202.0723421640089 495.3628733414168 0  208.8513525529672 496.5903258712308 0  215.6616106544547 497.6305211744985 0  222.4979448327038 498.4826693384772 0  229.3551637102845 499.1461232581612 0  236.2280599621369 499.6203791111485 0  243.1114144470173 499.9050767573145 0  155.2373389820306 474.8197567317462 0  25.36256300907667 153.9152755065208 0  432.3709625126712 412.6214396304305 0  6.013151705810699 246.637913163471 0  246.6379131630491 493.986848294322 0  338.6995838441862 22.68244767887072 0  477.3175523131281 338.6995838660569 0  493.9868482700757 246.6379131399102 0  246.6201155078769 6.218451882810491 0  417.6179310263282 72.7156044707053 0  102.2232990934413 445.0100869616822 0  63.66330858966404 92.20354579482142 0  391.3105220491464 50.73522820883105 0  72.79295043967942 418.0702734974704 0  448.290574428537 108.25674339002 0  402.4604651193511 440.7462829841712 0  97.55317348421397 59.11376320116034 0  136.7376477664901 33.58246472647134 0  363.3288394375288 465.6947312928271 0  44.0678766556007 381.0860953771871 0  469.6905266180034 142.3890690100806 0  22.68244791668644 338.6995843487432 0  338.699584349159 477.317552078365 0  173.389488083762 18.6681884918202 0  483.4809734778481 179.7121987795732 0  13.50237455842738 306.4709525540879 0  305.9825168523021 487.24416992
[...]
<PointData  Vectors="f_12"> 
<DataArray  type="Float64"  Name="f_12"  NumberOfComponents="3" format="ascii">0.0000000000000000e+00 2.5868466214578653e-02 6.4602838411069854e-02  0.0000000000000000e+00 2.1808646366659749e-02 8.6862776076596412e-02  0.0000000000000000e+00 2.9867746675153940e-02 5.1535609687851681e-02  0.0000000000000000e+00 1.7425668478327518e-02 1.4115358029456004e-01  0.0000000000000000e+00 2.9933930819472775e-02 5.1364031022496544e-02  0.0000000000000000e+00 2.9994889732250844e-02 5.1207055961496412e-02  0.0000000000000000e+00 3.0053504412414826e-02 5.1057033822000407e-02  0.0000000000000000e+00 3.0107271110947836e-02 5.0920180294055144e-02  0.0000000000000000e+00 3.0157129445648412e-02 5.0793981026627036e-02  0.0000000000000000e+00 3.0202760284958465e-02 5.0679009419435365e-02  0.0000000000000000e+00 3.0244093444048149e-02 5.0575328873063520e-02  0.0000000000000000e+00 3.0281254536299471e-02 5.0482482544405551e-02  0.0000000000000000e+00 3.0313855053382473e-02 5.0401305832439951e-02  0.0000000000000000e+00 3.0341560419998779e-02 5.0332544190456692e-02  0.0000000000000000e+00 3.0362326532469227e-02 5.0281146642553190e-02  0.0000000000000000e+00 3.0382374376002916e-02 5.0231580176258478e-02  0.0000000000000000e+00 3.0391655390447372e-02 5.0208708060648852e-02  0.0000000000000000e+00 3.0399176467711172e-02 5.0190154190690339e-02  0.0000000000000000e+00 3.0400556686598385e-02 5.0186757566463049e-02  0.0000000000000000e+00 3.0396806130642117e-02 5.0196001390847671e-02  0.0000000000000000e+00 3.0388145727434940e-02 5.0217322807226288e-02  0.0000000000000000e+00 3.0371870581294952e-02 5.0257536175554590e-02  0.0000000000000000e+00 3.0349645545894820e-02 5.0312548731814580e-02  0.0000000000000000e+00 3.0323826430134176e-02 5.0376553649726055e-02  0.0000000000000000e+00 3.0291855500382114e-02 5.0456056380279508e-02  0.0000000000000000e+00 3.0252624178271341e-02 5.0554006829489434e-02  0.0000000000000000e+00 3.0205911219874686e-02 5.0671133863308834e-02  0.0000000000000000e+00 3.0155698872595688e-02 5.0797618893963344e-02  0.0000000000000000e+00 3.0099650348555315e-02 5.0939582670602265e-02  0.0000000000000000e+00 3.0035394338155844e-02 5.1103342169558953e-02  0.0000000000000000e+00 2.9967042333484260e-02 5.1278730178743390e-02  0.0000000000000000e+00 2.9892272382792122e-02 5.1472009031457010e-02  0.0000000000000000e+00 2.9811736379001742e-02 5.1681875191291762e-02  0.0000000000000000e+00 2.9726739835763724e-02 5.1905225509065046e-02  0.0000000000000000e+00 2.9634269042025749e-02 5.2150477616756043e-02  0.0000000000000000e+00 2.9537251018892204e-02 5.2410396519033363e-02  0.0000000000000000e+00 2.9436848473602620e-02 5.2682113116154193e-02  0.0000000000000000e+00 2.9330078531234691e-02 5.2974258757720875e-02  0.0000000000000000e+00 2.9217264747313690e-02 5.3286625228948017e-02  0.0000000000000000e+00 2.9101572903781250e-02 5.3610831659575406e-02  0.0000000000000000e+00 2.8983237571298226e-02 5.3946631606565973e-02  0.0000000000000000e+00 2.8859755966969314e-02 5.4301672677599978e-02  0.0000000000000000e+00 2.8731666168460387e-02 5.4674905274336848e-02  0.0000000000000000e+00 2.8601174527868228e-02 5.5060651055701709e-02  0.0000000000000000e+00 2.8466983797061404e-02 5.5463096285400089e-02  0.0000000000000000e+00 2.8329809094429795e-02 5.5880659861102681e-02  0.0000000000000000e+00 2.8190007005845386e-02 5.6312727740583844e-02  0.0000000000000000e+00 2.8047933596588172e-02 5.6758892186091633e-02  0.0000000000000000e+00 2.7901298319654894e-02 5.7226878669363872e-02  0.0000000000000000e+00 2.7752748456660231e-02 5.7708760879411410e-02  0.0000000000000000e+00 2.7601295740365954e-02 5.8208723438383667e-02  0.0000000000000000e+00 2.7446911999029541e-02 5.8726971979522376e-02  0.0000000000000000e+00 2.7289404121051790e-02 5.9265507048920571e-02  0.0000000000000000e+00 2.7127632834553581e-02 5.9828744677968088e-02  0.0000000000000000e+00 2.6962378510502524e-02 6.0415034506520880e-02  0.0000000000000000e+00 2.6793486959073267e-02 6.1026229533759524e-02  0.0000000000000000e+00 2.6619393719097013e-02 6.1668733681758708e-02  0.0000000000000000e+00 2.6440582358716623e-02 6.2342996399110354e-02  0.0000000000000000e+00 2.6256791731669487e-02 6.3049964522597993e-02  0.0000000000000000e+00 2.6069310440175662e-02 6.3786569192595899e-02  0.0000000000000000e+00 2.5667713841401606e-02 6.5428179797965072e-02  0.0000000000000000e+00 2.5459730576600288e-02 6.6310146109196111e-02  0.0000000000000000e+00 2.5246049494228505e-02 6.7241314902637822e-02  0.0000000000000000e+00 2.5025100402418770e-02 6.8229298560802010e-02  0.0000000000000000e+00 2.4799962418785831e-02 6.9268521110071715e-02  0.0000000000000000e+00 2.4570294403401773e-02 7.0357963356846076e-02  0.0000000000000000e+00 2.4337790966626225e-02 7.1498855702576386e-02  0.0000000000000000e+00 2.4103427540121188e-02 7.2685341788650382e-02  0.0000000000000000e+00 2.3869281194185715e-02 7.3911407948286961e-02  0.0000000000000000e+00 2.3637042421152533e-02 7.5169940204167798e-02  0.0000000000000000e+00 2.3407011399757059e-02 7.6459098723610217e-02  0.0000000000000000e+00 2.3182823989877165e-02 7.7761518069690824e-02  0.0000000000000000e+00 2.2963344931111993e-02 7.9080323970501312e-02  0.0000000000000000e+00 2.2750460772539529e-02 8.0404956652254597e-02  0.0000000000000000e+00 2.2544481114642301e-02 8.1730908472539707e-02  0.0000000000000000e+00 2.2345950984526287e-02 8.3053270609663471e-02  0.0000000000000000e+00 2.2154393064090758e-02 8.4371522033550084e-02  0.0000000000000000e+00 2.1969500215616042e-02 8.5686120565260801e-02  0.0000000000000000e+00 2.1790482275237347e-02 8.7000037876860753e-02  0.0000000000000000e+00 2.1616814151383019e-02 8.8315120415755816e-02  0.0000000000000000e+00 2.1447782162176635e-02 8.9634284797869890e-02  0.0000000000000000e+00 2.1282578185323423e-02 9.0964827975539023e-02  0.0000000000000000e+00 2.1119911147112189e-02 9.2314654859268069e-02  0.0000000000000000e+00 2.0959638794885261e-02 9.3685070783591562e-02  0.0000000000000000e+00 2.0800535006264633e-02 9.5087442112985671e-02  0.0000000000000000e+00 2.0642167819078100e-02 9.6526699302365557e-02  0.0000000000000000e+00 2.0484039761353188e-02 9.8008526902571863e-02  0.0000000000000000e+00 2.0325978114355259e-02 9.9537674217057254e-02  0.0000000000000000e+00 2.0167780024298650e-02 1.0111664097036227e-01  0.0000000000000000e+00 2.0009536796052635e-02 1.0274972030550211e-01  0.0000000000000000e+00 1.9851627147717411e-02 1.0443403832972485e-01  0.0000000000000000e+00 1.9694551867421764e-02 1.0616724697736599e-01  0.0000000000000000e+00 1.9538958515316375e-02 1.0794617388972863e-01  0.0000000000000000e+00 1.9385674855088623e-02 1.0976075430349660e-01  0.0000000000000000e+00 1.9236226715783129e-02 1.1159385655882259e-01  0.0000000000000000e+00 1.9090628469088277e-02 1.1344595188934910e-01  0.0000000000000000e+00 1.8949849423815397e-02 1.1530220563250733e-01  0.0000000000000000e+00 1.8815641044500158e-02 1.1713572345130070e-01  0.0000000000000000e+00 1.8687320466350018e-02 1.1895122424051806e-01  0.0000000000000000e+00 1.8565193147817977e-02 1.2074090469251071e-01  0.0000000000000000e+00 1.8451032088794159e-02 1.2246858404850401e-01  0.0000000000000000e+00 1.8344246051638331e-02 1.2414236265663427e-01  0.0000000000000000e+00 1.8244173210165023e-02 1.2575534240914671e-01  0.0000000000000000e+00 1.8150815661906180e-02 1.2730835095835180e-01  0.0000000000000000e+00 1.8064075086852562e-02 1.2879160671383999e-01  0.0000000000000000e+00 1.7983586363867796e-02 1.3020602271284212e-01  0.0000000000000000e+00 1.7909038511849443e-02 1.3154943652142556e-01  0.0000000000000000e+00 1.7840154624148355e-02 1.3282070848877106e-01  0.0000000000000000e+00 1.7776381252533596e-02 1.3402512522280344e-01  0.0000000000000000e+00 1.7717338410589464e-02 1.3516336064437651e-01  0.0000000000000000e+00 1.7662976187729239e-02 1.3623225830065316e-01  0.0000000000000000e+00 1.7613332409727955e-02 1.3722705107288552e-01  0.0000000000000000e+00 1.7568083119996334e-02 1.3814927203921626e-01  0.0000000000000000e+00 1.7526633624952950e-02 1.3900780681433242e-01  0.0000000000000000e+00 1.7489231697303320e-02 1.3979330550094121e-01  0.0000000000000000e+00 1.7455509786682810e-02 1.4051142587873527e-01  0.0000000000000000e+00 1.7400465294168815e-02 1.4170411463778562e-01  0.0000000000000000e+00 1.7374937763822800e-02 1.4226233071791508e-01  0.0000000000000000e+00 1.7357107810207151e-02 1.4265842222478020e-01  0.0000000000000000e+00 1.7341343862077255e-02 1.4301028804956190e-01  0.0000000000000000e+00 1.7328790892743768e-02 1.4329167420968270e-01  0.0000000000000000e+00 1.7319991174554985e-02 1.4349002108322942e-01  0.0000000000000000e+00 1.7314686251712168e-02 1.4360976167568013e-01  0.0000000000000000e+00 1.7312579815364326e-02 1.4365740721167791e-01  0.0000000000000000e+00 1.7313946195237052e-02 1.4362650193382390e-01  0.0000000000000000e+00 1.7317383837342087e-02 1.4354873566790863e-01  0.0000000000000000e+00 1.7326197439367853e-02 1.4335007982160536e-01  0.0000000000000000e+00 1.7337766888211103e-02 1.4309027242929745e-01  0.0000000000000000e+00 1.7352653283140219e-02 1.4275798118003763e-01  0.0000000000000000e+00 1.7370272481537715e-02 1.4236661468052900e-01  0.0000000000000000e+00 1.7391555014654957e-02 1.4189758070266298e-01  0.0000000000000000e+00 1.7416765805901735e-02 1.4134701978555725e-01  0.0000000000000000e+00 1.7445058711111711e-02 1.4073548593041860e-01  0.0000000000000000e+00 1.7476681259126482e-02 1.4005935080224768e-01  0.0000000000000000e+00 1.7511705299743836e-02 1.3931974978688291e-01  0.0000000000000000e+00 1.7550309311204135e-02 1.3851553858648707e-01  0.0000000000000000e+00 1.7592889038088547e-02 1.3764195906258841e-01  0.0000000000000000e+00 1.7639340700489767e-02 1.3670392151664881e-01  0.0000000000000000e+00 1.7689496518213547e-02 1.3570814777330109e-01  0.0000000000000000e+00 1.7743666366031422e-02 1.3465248246035513e-01  0.0000000000000000e+00 1.7802188896465471e-02 1.3353400131880003e-01  0.0000000000000000e+00 1.7865284332471722e-02 1.3235312911724081e-01  0.0000000000000000e+00 1.7933213058460001e-02 1.3110940405691426e-01  0.0000000000000000e+00 1.8006212393060311e-02 1.2980389012304325e-01  0.0000000000000000e+00 1.8084599678095004e-02 1.2843609519545843e-01  0.0000000000000000e+00 1.8168587205018169e-02 1.2700817230501704e-01  0.0000000000000000e+00 1.8258415932426636e-02 1.2552180303077640e-01  0.0000000000000000e+00 1.8354152035901690e-02 1.2398275301874996e-01  0.0000000000000000e+00 1.8455867551160177e-02 1.2239411285271837e-01  0.0000000000000000e+00 1.8564063844274160e-02 1.2075626294976470e-01  0.0000000000000000e+00 1.8678467194013681e-02 1.1907752787814706e-01  0.0000000000000000e+00 1.8798829564644407e-02 1.1736831569906531e-01  0.0000000000000000e+00 1.8924620218633562e-02 1.1563994017381404e-01  0.0000000000000000e+00 1.9055313761928032e-02 1.1390360272184466e-01  0.0000000000000000e+00 1.9190295331879242e-02 1.1216890776257274e-01  0.0000000000000000e+00 1.9328822786160053e-02 1.1044829117780301e-01  0.0000000000000000e+00 1.9470969448234478e-02 1.0874092603394592e-01  0.0000000000000000e+00 1.9614712501148643e-02 1.0706985577335440e-01  0.0000000000000000e+00 1.9759468271986404e-02 1.0544244283540866e-01  0.0000000000000000e+00 1.9905145390580806e-02 1.0385448955706887e-01  0.0000000000000000e+00 2.0051036595099464e-02 1.0231428231111182e-01  0.0000000000000000e+00 2.0196705134665819e-02 1.0082234650798992e-01  0.0000000000000000e+00 2.0341339935076343e-02 9.9384373889421021e-02  0.0000000000000000e+00 2.0485823914636749e-02 9.7989547382097850e-02  0.0000000000000000e+00 2.0629844315673895e-02 9.6639498854665190e-02  0.0000000000000000e+00 2.0773105907712208e-02 9.5330573290043880e-02  0.0000000000000000e+00 2.0916804844426658e-02 9.4057346681657661e-02  0.0000000000000000e+00 2.1061042317687642e-02 9.2810997086011940e-02  0.0000000000000000e+00 2.1206254702306488e-02 9.1591348935822908e-02  0.0000000000000000e+00 2.1352952102390601e-02 9.0391535536880688e-02  0.0000000000000000e+00 2.1501924867475018e-02 8.9206016795241830e-02  0.0000000000000000e+00 2.1653441759201423e-02 8.8032156680071902e-02  0.0000000000000000e+00 2.1967926506732526e-02 8.5695572804747489e-02  0.0000000000000000e+00 2.2131338287955351e-02 8.4530854301162167e-02  0.0000000000000000e+00 2.2300073623829120e-02 8.3362991934162106e-02  0.0000000000000000e+00 2.2473756288230624e-02 8.2194752812884200e-02  0.0000000000000000e+00 2.2652778130565977e-02 8.1025989955407426e-02  0.0000000000000000e+00 2.2837139846746814e-02 7.9857679377825966e-02  0.0000000000000000e+00 2.3026546444709615e-02 7.8693408314921082e-02  0.0000000000000000e+00 2.3220463313872758e-02 7.7536957533591869e-02  0.0000000000000000e+00 2.3418307747538229e-02 7.6392784219982093e-02  0.0000000000000000e+00 2.3619130753455120e-02 7.5265901427391382e-02  0.0000000000000000e+00 2.3821974202672225e-02 7.4162320922035257e-02  0.0000000000000000e+00 2.4025294343049983e-02 7.3087653737610239e-02  0.0000000000000000e+00 2.4228652197518751e-02 7.2044280168032812e-02  0.0000000000000000e+00 2.4430970455198913e-02 7.1035345569193747e-02  0.0000000000000000e+00 2.4630089080332981e-02 7.0069169004323056e-02  0.0000000000000000e+00 2.4827240331839064e-02 6.9138337844982037e-02  0.0000000000000000e+00 2.5020511672492869e-02 6.8249110213465650e-02  0.0000000000000000e+00 2.5207841043417278e-02 6.7407673613869859e-02  0.0000000000000000e+00 2.5390880888110839e-02 6.6606120426544194e-02  0.0000000000000000e+00 2.5568716228864290e-02 6.5843768878720968e-02  0.0000000000000000e+00 2.5741551822565528e-02 6.5119629463363568e-02  0.0000000000000000e+00 2.5909055344116080e-02 6.4432307631890146e-02  0.0000000000000000e+00 2.6071753856536477e-02 6.3777940366014058e-02  0.0000000000000000e+00 2.6229814871597382e-02 6.3154665715344990e-02  0.0000000000000000e+00 2.6382743843126340e-02 6.2562678914216727e-02  0.0000000000000000e+00 2.6531405712578088e-02 6.1997569100705370e-02  0.0000000000000000e+00 2.6676703997815743e-02 6.1454740207512903e-02  0.0000000000000000e+00 2.6817203688036133e-02 6.0938554313465551e-02  0.0000000000000000e+00 2.6955015210550472e-02 6.0440599913183256e-02  0.0000000000000000e+00 2.7089554309823308e-02 5.9961951123014175e-02  0.0000000000000000e+00 2.7220993691681992e-02 5.9501545033135331e-02  0.0000000000000000e+00 2.7349726749202764e-02 5.9057312708012157e-02  0.0000000000000000e+00 2.7475907636293113e-02 5.8628205284315477e-02  0.0000000000000000e+00 2.7599989908916319e-02 5.8212234113542732e-02  0.0000000000000000e+00 2.7722482153956514e-02 5.7807327029036279e-02  0.0000000000000000e+00 2.7841872054878338e-02 5.7417988719438130e-02  0.0000000000000000e+00 2.7958939072892739e-02 5.7041315292938086e-02  0.0000000000000000e+00 2.8075734908266238e-02 5.6670432793367212e-02  0.0000000000000000e+00 2.8189845504562803e-02 5.6312687955062404e-02  0.0000000000000000e+00 2.8301502771128032e-02 5.5967058778171902e-02  0.0000000000000000e+00 2.8411866199663578e-02 5.5629611399051003e-02  0.0000000000000000e+00 2.8520171442712759e-02 5.5302350689246146e-02  0.0000000000000000e+00 2.8627153252480914e-02 5.4983022029367015e-02  0.0000000000000000e+00 2.8731061971612740e-02 5.4676251040465550e-02  0.0000000000000000e+00 2.8833756146894832e-02 5.4376620761484369e-02  0.0000000000000000e+00 2.8933991708444465e-02 5.4087277896372792e-02  0.0000000000000000e+00 2.9032327694186032e-02 5.3806416386107399e-02  0.0000000000000000e+00 2.9128952361374003e-02 5.3533317405121836e-02  0.0000000000000000e+00 2.9222117717880945e-02 5.3272809842145954e-02  0.0000000000000000e+00 2.9312462189009306e-02 5.3022536139605746e-02  0.0000000000000000e+00 2.9401442303742149e-02 5.2778381241575585e-02  0.0000000000000000e+00 2.9486853856437047e-02 5.2546171766944358e-02  0.0000000000000000e+00 2.9568908287463381e-02 5.2325111088293366e-02  0.0000000000000000e+00 2.9648258678669333e-02 5.2113060654965397e-02  0.0000000000000000e+00 2.9724744623495440e-02 5.1910362480239253e-02  0.0000000000000000e+00 2.9797187027074349e-02 5.1719829054604351e-02  0.0000000000000000e+00 2.8563486071964551e-02 5.5172713565736678e-02  0.0000000000000000e+00 1.9666140074351190e-02 1.0648636839925861e-01  0.0000000000000000e+00 2.9659270013390554e-02 5.2083987239796910e-02  0.0000000000000000e+00 2.1729962308860085e-02 8.7452067761893307e-02  0.0000000000000000e+00 2.9815516837906827e-02 5.1671921905669202e-02  0.0000000000000000e+00 1.8203140146243808e-02 1.2643373046209866e-01  0.0000000000000000e+00 2.8106125237989128e-02 5.6575478984542696e-02  0.0000000000000000e+00 2.5761770808180817e-02 6.5036443136204977e-02  0.0000000000000000e+00 1.7418470904243130e-02 1.4131017864472972e-01  0.0000000000000000e+00 2.0089050187961140e-02 1.0192323247615202e-01  0.0000000000000000e+00 2.7525817841328046e-02 5.8460300437310278e-02  0.0000000000000000e+00 1.8311538477914696e-02 1.2466306191466014e-01  0.0000000000000000e+00 1.9297891268660248e-02 1.1083041691092278e-01  0.0000000000000000e+00 2.6743887903132760e-02 6.1206981935722438e-02  0.0000000000000000e+00 2.1198402656733978e-02 9.1658834674237036e-02  0.0000000000000000e+00 3.0112897361513506e-02 5.0906053312258226e-02  0.0000000000000000e+00 1.7775235089983060e-02 1.3404685040780814e-01  0.0000000000000000e+00 1.7466103112312122e-02 1.4028506321080536e-01  0.0000000000000000e+00 3.0359536186608589e-02 5.0288098518342123e-02  0.0000000000000000e+00 2.5659849314126515e-02 6.5460374369846253e-02  0.0000000000000000e+00 2.2242830169933597e-02 8.3758075528047871e-02  0.0000000000000000e+00 2.4323846426721012e-02 7.1565785202830107e-02  0.0000000000000000e+00 3.0377687629950498e-02 5.0243267338494768e-02  0.0000000000000000e+00 1.7339311636279355e-02 1.4305593510775372e-01  0.0000000000000000e+00 2.3491981048670223e-02 7.5978196190489344e-02  0.0000000000000000e+00 2.3314373264380718e-02 7.6990079841699768e-02  0.0000000000000000e+00 3.0274667037305750e-02 5.0499031966705514e-02  0.0000000000000000e+00 2.9162778369214316e-02 5.3438476625800903e-02  0.0000000000000000e+00 2.0559298525877095e-02 9.7296781654955186e-02  0.0000000000000000e+00 1.7752727925453991e-02 1.3447922886564240e-01  0.0000000000000000e+00 2.7198104928921440e-02 5.9582155776385155e-02  0.0000000000000000e+00 2.9050021640823709e-02 5.3756744270634343e-02  0.0000000000000000e+00 1.7321760953786524e-02 1.4345042644628733e-01  0.0000000000000000e+00 2.4431637195458950e-02 7.1034421832624511e-02  0.0000000000000000e+00 2.2560127609243152e-02 8.1626995967941235e-02  0.0000000000000000e+00 3.0114556852935660e-02 5.0901822712751121e-02  0.0000000000000000e+00 1.8759651029579792e-02 1.1792298763596852e-01  0.0000000000000000e+00 1.8994228597938281e-02 1.1470888946487255e-01  0.0000000000000000e+00 2.9514184350233973e-02 5.2472425034334948e-02  0.0000000000000000e+00 2.8119175275805854e-02 5.6533654089170153e-02  0.0000000000000000e+00 2.1148935980819256e-02 9.2069178325409645e-02  0.0000000000000000e+00 1.7556485542053177e-02 1.3838879259074113e-01  0.0000000000000000e+00 2.6540495659443029e-02 6.1964816866224709e-02  0.0000000000000000e+00 3.0246137858244208e-02 5.0570370148455612e-02  0.0000000000000000e+00 2.7664684003099800e-02 5.7998523076016266e-02  0.0000000000000000e+00 1.7352725522320433e-02 1.4275685214187392e-01  0.0000000000000000e+00 1.7952789583114043e-02 1.3075754888505259e-01  0.0000000000000000e+00 2.5124686797733865e-02 6.7780325245149292e-02  0.0000000000000000e+00 2.0557380271790958e-02 9.7316257619258856e-02  0.0000000000000000e+00 2.8873195418450338e-02 5.4262526577412110e-02  0.0000000000000000e+00 2.9362471253392999e-02 5.2885297638289759e-02  0.0000000000000000e+00 2.6306184338558507e-02 6.2857738829610446e-02  0.0000000000000000e+00 1.7621721661207082e-02 1.3705851616423778e-01  0.0000000000000000e+00 2.5120537738277882e-02 6.7797426410269063e-02  0.0000000000000000e+00 2.0126248662033344e-02 1.0153960582870242e-01  0.0000000000000000e+00 2.8652648764331608e-02 5.4907915408840574e-02  0.0000000000