<?xml version="1.0"?>
<VTKFile type="UnstructuredGrid"  version="0.1"  >
<UnstructuredGrid>
<Piece  NumberOfPoints="4940" NumberOfCells="9650">
<Points>
<DataArray  type="Float64"  NumberOfComponents="3"  format="ascii">500 250 0  0 250 0  250 500 0  250 0 0  256.8885856082646 499.9050767557906 0  263.7719401218049 499.6203791065173 0  270.6448364229772 499.1461232471188 0  277.5020553257866 498.4826693209355 0  284.3383895508592 497.6305211460281 0  291.1486476865662 496.5903258312597 0  297.9276581259182 495.3628732847843 0  304.6702729675493 493.9490956196674 0  311.3713719748657 492.3500664368026 0  318.0258664141369 490.5670000199653 0  324.6287029687753 488.6012504015818 0  331.1748675330201 486.4543103455647 0  337.6593890460416 484.1278102064655 0  344.0773432429536 481.6235166997244 0  350.4238564271474 478.9433315480048 0  356.694109139292 476.0892900492477 0  362.88333985546 473.0635595140469 0  368.9868485575419 469.8684376402048 0  375.0000003153078 466.5063507640667 0  380.9182288257928 462.9798520074548 0  386.7370398729688 459.2916193419558 0  392.4520147244077 455.444453565817 0  398.0588135356345 451.4412761437442 0  403.5531785622926 447.285127045646 0  408.9309374414144 442.9791624087773 0  414.1880064015299 438.5266521049243 0  419.3203932989752 433.9309773069245 0  424.324200661095 429.1956279150535 0  429.1956286596235 424.3241998957182 0  433.9309780058756 419.3203925397119 0  438.5266527445345 414.1880056671062 0  442.9791630130591 408.9309367076756 0  447.2851276060475 403.5531778422888 0  451.4412766621026 398.0588128303826 0  455.4444540361634 392.4520140460735 0  459.2916197786263 386.7370392045948 0  462.9798524073514 380.9182281752347 0  466.5063511234856 374.9999996927758 0  469.8684379657123 368.9868479560565 0  473.0635598144817 362.8833392617846 0  476.0892903190255 356.6941085676214 0  478.9433317963513 350.4238558609745 0  481.6235169154735 344.0773427117675 0  484.12781039012 337.6593885555221 0  486.4543105028062 331.1748670749914 0  488.601250531677 324.6287025528375 0  490.5670001317469 318.0258660188321 0  492.3500665291326 311.3713716102628 0  493.949095695951 304.6702726271575 0  495.3628733416623 297.9276578347343 0  496.5903258712341 291.1486474470129 0  497.6305211749058 284.3383893426084 0  498.4826693388848 277.502055163614 0  499.1461232580606 270.6448362909296 0  499.6203791109319 263.7719400417897 0  499.9050767571306 256.8885855596534 0  499.9050767559877 243.1114143988867 0  499.6203791069493 236.2280598860241 0  499.1461232485393 229.3551635941651 0  498.4826693235677 222.4979446979962 0  497.6305211491849 215.6616104719064 0  496.5903258357701 208.8513523404629 0  495.3628732906988 202.0723419043604 0  493.9490956264813 195.3297270628552 0  492.3500664487791 188.6286280724281 0  490.5670000344809 181.9741336371959 0  488.6012504175981 175.3712970824318 0  486.4543103623226 168.8251325157939 0  484.1278102222298 162.3406109960628 0  481.6235167152198 155.9226567951971 0  478.9433315621651 149.5761436051346 0  476.0892900516498 143.3058908657982 0  473.063559513628 137.1166601437124 0  469.8684376406648 131.0131514433083 0  466.5063507675389 124.9999996907064 0  462.9798520124137 119.0817711822745 0  459.2916193464549 113.2629601339176 0  455.4444535642773 107.5479852733717 0  451.4412761528674 101.9411864767781 0  447.2851270583545 96.44682145403524 0  442.9791624165781 91.06906256805769 0  438.5266521117469 85.81199360630404 0  433.9309773156125 80.67960671046254 0  429.1956279150353 75.67579933888632 0  424.3241998888952 70.80437133373906 0  419.3203925223282 66.06902197812161 0  414.1880056411937 61.47334723289828 0  408.9309366751728 57.0208369601728 0  403.5531778009394 52.71487236176898 0  398.058812796452 48.55872331295853 0  392.4520140187753 44.55554594490843 0  386.7370391799677 40.70838020528396 0  380.9182281475119 37.02014757560744 0  374.9999996718656 33.49364886444181 0  368.9868479340393 30.13156202237255 0  362.8833392380029 26.93644017348339 0  356.6941085456942 23.91070967062674 0  350.4238558420009 21.0566681953261 0  344.0773426899492 18.37648307566465 0  337.6593885328982 15.87218960140942 0  331.1748670549786 13.54568949032341 0  324.6287025315056 11.39874946165088 0  318.0258660010876 9.432999863235466 0  311.3713716017894 7.649933468721599 0  304.6702726190621 6.050904302234756 0  297.9276578269805 4.637126656823085 0  291.148647441857 3.409674127905504 0  284.3383893425031 2.369478825079682 0  277.502055159398 1.517330660648639 0  270.6448362875833 0.853876741662134 0  263.7719400401456 0.3796208889774277 0  256.8885855592052 0.09492324285704967 0  243.1114143979462 0.09492324403817065 0  236.2280598850882 0.3796208931023841 0  229.3551635938215 0.8538767514891958 0  222.4979446968584 1.517330676558146 0  215.6616104703111 2.369478851036291 0  208.8513523382973 3.409674164591252 0  202.0723419066374 4.637126708856528 0  195.3297270659513 6.050904372824903 0  188.628628074828 7.649933550613184 0  181.9741336377093 9.432999965373938 0  175.3712970793675 11.39874958336037 0  168.8251325057572 13.54568964112298 0  162.340610986655 15.87218978129263 0  155.9226567874317 18.37648328793418 0  149.576143602509 21.05666843898663 0  143.3058908718157 23.91070994551046 0  137.1166601505524 26.93644048291054 0  131.0131514451933 30.13156235831508 0  124.9999996848412 33.49364923584736 0  119.0817711715717 37.0201479941652 0  113.2629601211624 40.70838066187849 0  107.5479852622251 44.55554644345162 0  101.9411864693332 48.55872385260452 0  96.44682143286516 52.71487295812284 0  91.06906254351222 57.02083760363669 0  85.81199358272519 61.4733479087879 0  80.67960667988106 66.06902271253972 0  75.67579930062769 70.80437212218331 0  70.80437129287643 75.67580015310926 0  66.06902193673014 80.67960752263491 0  61.47334718684866 85.81199441168215 0  57.02083692524275 91.0690633672404 0  52.71487232786438 96.44682224262129 0  48.55872328070024 101.941187247437 0  44.55554591578033 107.5479860232332 0  40.7083801742321 113.2629608675606 0  37.02014754791168 119.0817718975441 0  33.49364883372994 125.000000381329 0  30.13156199866361 131.0131521097709 0  26.9364401549829 137.1166607985551 0  23.91070965524918 143.3058914868915 0  21.05666818346614 149.576144185037 0  18.37648306853811 155.9226573275967 0  15.8721895918909 162.3406114925245 0  13.54568948170046 168.8251329701392 0  11.39874945301878 175.3712974960928 0  9.432999857087736 181.9741340206533 0  7.649933466342702 188.6286284076045 0  6.050904301250966 195.3297273853278 0  4.637126656808988 202.0723421730917 0  3.409674127767772 208.8513525589684 0  2.369478824521138 215.6616106615248 0  1.517330660909465 222.4979448382452 0  0.8538767414496533 229.355163714981 0  0.3796208887135322 236.2280599646376 0  0.09492324266324204 243.1114144478261 0  0.0949232442452228 256.8885856095658 0  0.3796208935834784 263.7719401236316 0  0.8538767530323526 270.6448364248016 0  1.517330679476544 277.5020553295092 0  2.369478854618649 284.3383895555228 0  3.409674170191892 291.1486476952655 0  4.6371267162381 297.9276581311522 0  6.050904381420935 304.6702729724059 0  7.649933562385399 311.3713719716595 0  9.43299997979841 318.0258664133013 0  11.3987495994252 324.6287029719946 0  13.54568965885832 331.174867545904 0  15.87218979367188 337.6593890464085 0  18.37648329843151 344.0773432384132 0  21.05666844777872 350.423856417535 0  23.91070995156048 356.6941091410045 0  26.93644048988043 362.8833398632205 0  30.13156235982007 368.9868485575877 0  33.49364924138357 375.0000003247478 0  37.0201480006036 380.9182288389023 0  40.70838066758398 386.7370398875706 0  44.55554644477201 392.4520147396792 0  48.55872386086904 398.0588135419111 0  52.71487295981296 403.5531785693063 0  57.02083760525949 408.9309374584583 0  61.47334790862246 414.1880064170849 0  66.06902271205095 419.320393319588 0  70.80437211216579 424.3242006890749 0  75.67580013809859 429.195628692521 0  80.6796075127923 433.930978054209 0  85.81199439754931 438.5266528008431 0  91.06906334717917 442.9791630582355 0  96.44682221438322 447.2851276501571 0  101.9411872243843 451.441276702356 0  107.5479859945825 455.4444540643537 0  113.2629608446994 459.2916198108319 0  119.0817718768376 462.9798524393601 0  125.0000003647644 466.5063511567065 0  131.0131521012763 469.8684379967393 0  137.1166607840049 473.0635598376539 0  143.3058914748804 476.0892903390826 0  149.5761441732679 478.9433318113714 0  155.9226573130112 481.6235169255377 0  162.3406114779862 484.1278104026658 0  168.8251329570439 486.4543105138039 0  175.3712974805475 488.601250542119 0  181.9741340135204 490.5670001408953 0  188.6286284005059 492.3500665318597 0  195.3297273788229 493.9490956972913 0  202.0723421640089 495.3628733414168 0  208.8513525529672 496.5903258712308 0  215.6616106544547 497.6305211744985 0  222.4979448327038 498.4826693384772 0  229.3551637102845 499.1461232581612 0  236.2280599621369 499.6203791111485 0  243.1114144470173 499.9050767573145 0  155.2373389820306 474.8197567317462 0  25.36256300907667 153.9152755065208 0  432.3709625126712 412.6214396304305 0  6.013151705810699 246.637913163471 0  246.6379131630491 493.986848294322 0  338.6995838441862 22.68244767887072 0  477.3175523131281 338.6995838660569 0  493.9868482700757 246.6379131399102 0  246.6201155078769 6.218451882810491 0  417.6179310263282 72.7156044707053 0  102.2232990934413 445.0100869616822 0  63.66330858966404 92.20354579482142 0  391.3105220491464 50.73522820883105 0  72.79295043967942 418.0702734974704 0  448.290574428537 108.25674339002 0  402.4604651193511 440.7462829841712 0  97.55317348421397 59.11376320116034 0  136.7376477664901 33.58246472647134 0  363.3288394375288 465.6947312928271 0  44.0678766556007 381.0860953771871 0  469.6905266180034 142.3890690100806 0  22.68244791668644 338.6995843487432 0  338.699584349159 477.317552078365 0  173.389488083762 18.6681884918202 0  483.4809734778481 179.7121987795732 0  13.50237455842738 306.4709525540879 0  305.9825168523021 487.24416992
[...]
<PointData  Vectors="f_12"> 
<DataArray  type="Float64"  Name="f_12"  NumberOfComponents="3" format="ascii">0.0000000000000000e+00 2.6457648733611519e-02 6.2283706198424910e-02  0.0000000000000000e+00 2.2206709817253974e-02 8.4006275112092577e-02  0.0000000000000000e+00 3.0984846440410597e-02 4.8788412180777417e-02  0.0000000000000000e+00 1.7473825031452686e-02 1.4011924498622047e-01  0.0000000000000000e+00 3.1054585528295577e-02 4.8626682599839412e-02  0.0000000000000000e+00 3.1117768322561801e-02 4.8481165484240224e-02  0.0000000000000000e+00 3.1179550040483277e-02 4.8339675283777882e-02  0.0000000000000000e+00 3.1235599838074040e-02 4.8212034105250733e-02  0.0000000000000000e+00 3.1287768843100437e-02 4.8093878655430938e-02  0.0000000000000000e+00 3.1335568257985683e-02 4.7986081576552618e-02  0.0000000000000000e+00 3.1379028785405272e-02 4.7888499861485120e-02  0.0000000000000000e+00 3.1418529371957417e-02 4.7800152726015531e-02  0.0000000000000000e+00 3.1453505984609921e-02 4.7722179165579436e-02  0.0000000000000000e+00 3.1483531426909447e-02 4.7655472013730278e-02  0.0000000000000000e+00 3.1505130678392876e-02 4.7607653323405871e-02  0.0000000000000000e+00 3.1528996046115178e-02 4.7554796708712557e-02  0.0000000000000000e+00 3.1538301473506329e-02 4.7534316507953062e-02  0.0000000000000000e+00 3.1548302198742106e-02 4.7512223384557919e-02  0.0000000000000000e+00 3.1551612799494894e-02 4.7504936918171793e-02  0.0000000000000000e+00 3.1549982295454582e-02 4.7508532415290489e-02  0.0000000000000000e+00 3.1543853059134958e-02 4.7521964937162514e-02  0.0000000000000000e+00 3.1528790468143886e-02 4.7555278350245304e-02  0.0000000000000000e+00 3.1507489772472974e-02 4.7602461440283343e-02  0.0000000000000000e+00 3.1484017373350374e-02 4.7654416051185408e-02  0.0000000000000000e+00 3.1453971355564943e-02 4.7721135171710491e-02  0.0000000000000000e+00 3.1415629500800395e-02 4.7806643458466941e-02  0.0000000000000000e+00 3.1368310223516202e-02 4.7912610389821378e-02  0.0000000000000000e+00 3.1318895872076070e-02 4.8023667413748937e-02  0.0000000000000000e+00 3.1263367330658508e-02 4.8149096823323786e-02  0.0000000000000000e+00 3.1197326376674387e-02 4.8299206769750254e-02  0.0000000000000000e+00 3.1127863040138502e-02 4.8458075998745465e-02  0.0000000000000000e+00 3.1050867498450752e-02 4.8635443783694679e-02  0.0000000000000000e+00 3.0967062092008991e-02 4.8830022091987169e-02  0.0000000000000000e+00 3.0878654971697492e-02 4.9036907115251355e-02  0.0000000000000000e+00 3.0780144303916408e-02 4.9269598951838772e-02  0.0000000000000000e+00 3.0676244402250599e-02 4.9517517186277102e-02  0.0000000000000000e+00 3.0568961042851919e-02 4.9776016563597938e-02  0.0000000000000000e+00 3.0452672147939275e-02 5.0059421010871380e-02  0.0000000000000000e+00 3.0327540280122033e-02 5.0368224990569775e-02  0.0000000000000000e+00 3.0198941239279308e-02 5.0689538344266927e-02  0.0000000000000000e+00 3.0067325215466366e-02 5.1022696222178920e-02  0.0000000000000000e+00 2.9927791645281827e-02 5.1380931892517454e-02  0.0000000000000000e+00 2.9780791297241330e-02 5.1763801399924453e-02  0.0000000000000000e+00 2.9630554936374637e-02 5.2161281817111174e-02  0.0000000000000000e+00 2.9474584169701983e-02 5.2580629380501190e-02  0.0000000000000000e+00 2.9313933410216455e-02 5.3019717496834963e-02  0.0000000000000000e+00 2.9149436687663913e-02 5.3477078762596345e-02  0.0000000000000000e+00 2.8981810949223353e-02 5.3951648458683318e-02  0.0000000000000000e+00 2.8807081874603107e-02 5.4455602585169828e-02  0.0000000000000000e+00 2.8629996752312346e-02 5.4975971044221000e-02  0.0000000000000000e+00 2.8449755478396802e-02 5.5516419994355269e-02  0.0000000000000000e+00 2.8265898300482570e-02 5.6078447469784937e-02  0.0000000000000000e+00 2.8079328682933818e-02 5.6660960327015314e-02  0.0000000000000000e+00 2.7887869662372992e-02 5.7271393211248099e-02  0.0000000000000000e+00 2.7693749123333777e-02 5.7903789055181572e-02  0.0000000000000000e+00 2.7497351609968718e-02 5.8558131628981179e-02  0.0000000000000000e+00 2.7296537093986190e-02 5.9242251729432836e-02  0.0000000000000000e+00 2.7092681452759379e-02 5.9953562215557317e-02  0.0000000000000000e+00 2.6885812987790355e-02 6.0691283148704402e-02  0.0000000000000000e+00 2.6678468374766274e-02 6.1447954410329617e-02  0.0000000000000000e+00 2.6240673356037719e-02 6.3114430303425492e-02  0.0000000000000000e+00 2.6019491933324819e-02 6.3989210039595595e-02  0.0000000000000000e+00 2.5795864614102531e-02 6.4898504101232907e-02  0.0000000000000000e+00 2.5566299644622308e-02 6.5856375902081890e-02  0.0000000000000000e+00 2.5334883178394184e-02 6.6852714355449525e-02  0.0000000000000000e+00 2.5100436476086327e-02 6.7889515659353389e-02  0.0000000000000000e+00 2.4864354760713362e-02 6.8968502893822656e-02  0.0000000000000000e+00 2.4626585618024052e-02 7.0088508305186828e-02  0.0000000000000000e+00 2.4388658787931200e-02 7.1246318813844439e-02  0.0000000000000000e+00 2.4151634210042183e-02 7.2438662474687970e-02  0.0000000000000000e+00 2.3914716791774534e-02 7.3670150224771316e-02  0.0000000000000000e+00 2.3681520926448908e-02 7.4925831264956624e-02  0.0000000000000000e+00 2.3450514683970254e-02 7.6212247300210367e-02  0.0000000000000000e+00 2.3223096310010446e-02 7.7524200431293350e-02  0.0000000000000000e+00 2.2999869988190709e-02 7.8857671598015391e-02  0.0000000000000000e+00 2.2781711854622189e-02 8.0208256693785104e-02  0.0000000000000000e+00 2.2568449522244030e-02 8.1575182507858404e-02  0.0000000000000000e+00 2.2360249210218067e-02 8.2957559668482672e-02  0.0000000000000000e+00 2.2156728428960944e-02 8.4356767062032906e-02  0.0000000000000000e+00 2.1957857226866617e-02 8.5772093533232605e-02  0.0000000000000000e+00 2.1763538518941559e-02 8.7202385714880357e-02  0.0000000000000000e+00 2.1573309576734069e-02 8.8652924328044516e-02  0.0000000000000000e+00 2.1386417657178490e-02 9.0126657859806419e-02  0.0000000000000000e+00 2.1203126477888728e-02 9.1621365605317917e-02  0.0000000000000000e+00 2.1022551251231255e-02 9.3144617489567760e-02  0.0000000000000000e+00 2.0844615354532515e-02 9.4697242092444303e-02  0.0000000000000000e+00 2.0669086550554074e-02 9.6281068932045577e-02  0.0000000000000000e+00 2.0496023323982357e-02 9.7897248186138444e-02  0.0000000000000000e+00 2.0325333875417503e-02 9.9545051462694753e-02  0.0000000000000000e+00 2.0157168318961541e-02 1.0122635251208435e-01  0.0000000000000000e+00 1.9991821440046520e-02 1.0293668154574449e-01  0.0000000000000000e+00 1.9829620519962683e-02 1.0467341735720335e-01  0.0000000000000000e+00 1.9670833311281614e-02 1.0643519049128990e-01  0.0000000000000000e+00 1.9516126621704884e-02 1.0821186165408066e-01  0.0000000000000000e+00 1.9366620358125031e-02 1.0998968506815721e-01  0.0000000000000000e+00 1.9221449510652647e-02 1.1177802610919618e-01  0.0000000000000000e+00 1.9081384762658523e-02 1.1356463512178801e-01  0.0000000000000000e+00 1.8948015909469481e-02 1.1532526936238399e-01  0.0000000000000000e+00 1.8819816125262484e-02 1.1707581633001203e-01  0.0000000000000000e+00 1.8696993835816838e-02 1.1881112117902562e-01  0.0000000000000000e+00 1.8581657916646576e-02 1.2049280728202749e-01  0.0000000000000000e+00 1.8472528011492080e-02 1.2214014959513195e-01  0.0000000000000000e+00 1.8369273607355002e-02 1.2374282742405095e-01  0.0000000000000000e+00 1.8271806768495404e-02 1.2530428157462153e-01  0.0000000000000000e+00 1.8180239131848325e-02 1.2681310792834266e-01  0.0000000000000000e+00 1.8094276642194377e-02 1.2827002342988930e-01  0.0000000000000000e+00 1.8013839312077846e-02 1.2966958491271277e-01  0.0000000000000000e+00 1.7938834448775063e-02 1.3100787472081749e-01  0.0000000000000000e+00 1.7868662547365150e-02 1.3229118002810833e-01  0.0000000000000000e+00 1.7803077641064920e-02 1.3351732591587318e-01  0.0000000000000000e+00 1.7742350164684874e-02 1.3467727919607472e-01  0.0000000000000000e+00 1.7686620400729252e-02 1.3576429827323028e-01  0.0000000000000000e+00 1.7635651812071544e-02 1.3677735117568174e-01  0.0000000000000000e+00 1.7588634781122305e-02 1.3772867635820751e-01  0.0000000000000000e+00 1.7546168067574502e-02 1.3860132616036991e-01  0.0000000000000000e+00 1.7507775909391517e-02 1.3940264058028437e-01  0.0000000000000000e+00 1.7445414972865426e-02 1.4072975503076851e-01  0.0000000000000000e+00 1.7415381001357769e-02 1.4137473678260609e-01  0.0000000000000000e+00 1.7395742741020931e-02 1.4180502918529478e-01  0.0000000000000000e+00 1.7377845774287186e-02 1.4219877834612418e-01  0.0000000000000000e+00 1.7363576313740671e-02 1.4251413885743031e-01  0.0000000000000000e+00 1.7353757753252853e-02 1.4273271580616781e-01  0.0000000000000000e+00 1.7348082681553356e-02 1.4285908898647612e-01  0.0000000000000000e+00 1.7345968896528775e-02 1.4290629178086289e-01  0.0000000000000000e+00 1.7347932478939791e-02 1.4286245440035908e-01  0.0000000000000000e+00 1.7351593428941197e-02 1.4278056009601214e-01  0.0000000000000000e+00 1.7362503193444411e-02 1.4253810250545346e-01  0.0000000000000000e+00 1.7376270186578113e-02 1.4223341525751657e-01  0.0000000000000000e+00 1.7393863980735894e-02 1.4184699114924085e-01  0.0000000000000000e+00 1.7414331415414385e-02 1.4139942735469582e-01  0.0000000000000000e+00 1.7439133729778449e-02 1.4086217326005690e-01  0.0000000000000000e+00 1.7468743094640884e-02 1.4022785800718088e-01  0.0000000000000000e+00 1.7501673234557029e-02 1.3953051942648953e-01  0.0000000000000000e+00 1.7538359074710821e-02 1.3876319142857607e-01  0.0000000000000000e+00 1.7578823369959810e-02 1.3792862001336723e-01  0.0000000000000000e+00 1.7623272350827873e-02 1.3702590541989901e-01  0.0000000000000000e+00 1.7672178098995572e-02 1.3604984940899484e-01  0.0000000000000000e+00 1.7725349177985475e-02 1.3500734115866875e-01  0.0000000000000000e+00 1.7782299302457401e-02 1.3391149666778368e-01  0.0000000000000000e+00 1.7843338602247915e-02 1.3276085690337822e-01  0.0000000000000000e+00 1.7908807329205637e-02 1.3155276157077644e-01  0.0000000000000000e+00 1.7978789255728739e-02 1.3029040216914292e-01  0.0000000000000000e+00 1.8053448802613191e-02 1.2897501569091235e-01  0.0000000000000000e+00 1.8132852802770390e-02 1.2761049338247377e-01  0.0000000000000000e+00 1.8217215848178401e-02 1.2619769886219903e-01  0.0000000000000000e+00 1.8306597603186533e-02 1.2474060725187675e-01  0.0000000000000000e+00 1.8401118044960953e-02 1.2324197292277059e-01  0.0000000000000000e+00 1.8500656101710741e-02 1.2170900009103718e-01  0.0000000000000000e+00 1.8605270584979936e-02 1.2014369948679386e-01  0.0000000000000000e+00 1.8715385202955424e-02 1.1854629362892974e-01  0.0000000000000000e+00 1.8831014860376184e-02 1.1691913382645620e-01  0.0000000000000000e+00 1.8951827701436413e-02 1.1527236485944256e-01  0.0000000000000000e+00 1.9077518536419799e-02 1.1361291828914009e-01  0.0000000000000000e+00 1.9207797337910028e-02 1.1194777724367232e-01  0.0000000000000000e+00 1.9342365670510474e-02 1.1028211662248899e-01  0.0000000000000000e+00 1.9480838271666103e-02 1.0862373341965209e-01  0.0000000000000000e+00 1.9623932317498125e-02 1.0696506867524583e-01  0.0000000000000000e+00 1.9769795291420367e-02 1.0532761829678984e-01  0.0000000000000000e+00 1.9918053817640294e-02 1.0371766603697444e-01  0.0000000000000000e+00 2.0069174351730789e-02 1.0212672896286855e-01  0.0000000000000000e+00 2.0222629099810353e-02 1.0056300019253582e-01  0.0000000000000000e+00 2.0378016777288330e-02 9.9028412263682086e-02  0.0000000000000000e+00 2.0534408193018931e-02 9.7531238329223932e-02  0.0000000000000000e+00 2.0693078768978478e-02 9.6059075825390736e-02  0.0000000000000000e+00 2.0853266906494257e-02 9.4619310654006444e-02  0.0000000000000000e+00 2.1014481712246780e-02 9.3210409662127930e-02  0.0000000000000000e+00 2.1177944053564851e-02 9.1829440206841681e-02  0.0000000000000000e+00 2.1343295478526141e-02 9.0471137854212694e-02  0.0000000000000000e+00 2.1510755248158701e-02 8.9138599724280024e-02  0.0000000000000000e+00 2.1680514254747544e-02 8.7827645283144296e-02  0.0000000000000000e+00 2.1853070308417957e-02 8.6535618906990505e-02  0.0000000000000000e+00 2.2028188840674569e-02 8.5263406784703302e-02  0.0000000000000000e+00 2.2388597223617048e-02 8.2764303711933163e-02  0.0000000000000000e+00 2.2573511416666400e-02 8.1539608000080019e-02  0.0000000000000000e+00 2.2762412881640236e-02 8.0327661076889684e-02  0.0000000000000000e+00 2.2954335014485124e-02 7.9133336274824356e-02  0.0000000000000000e+00 2.3149438848796784e-02 7.7956660257770066e-02  0.0000000000000000e+00 2.3347495396102296e-02 7.6798348571496491e-02  0.0000000000000000e+00 2.3548112238995451e-02 7.5660772133453361e-02  0.0000000000000000e+00 2.3750689198563019e-02 7.4546280824039066e-02  0.0000000000000000e+00 2.3954820306650748e-02 7.3456679236945002e-02  0.0000000000000000e+00 2.4159824562510125e-02 7.2394065184241338e-02  0.0000000000000000e+00 2.4365137460933262e-02 7.1361031251175808e-02  0.0000000000000000e+00 2.4569427341612653e-02 7.0361096607160042e-02  0.0000000000000000e+00 2.4773408646854372e-02 6.9390518608539023e-02  0.0000000000000000e+00 2.4976139361338131e-02 6.8451667803608854e-02  0.0000000000000000e+00 2.5175873336949164e-02 6.7550548099319138e-02  0.0000000000000000e+00 2.5375198814866138e-02 6.6674537097594758e-02  0.0000000000000000e+00 2.5571769686035507e-02 6.5831989559040391e-02  0.0000000000000000e+00 2.5763326278312869e-02 6.5029999731724783e-02  0.0000000000000000e+00 2.5952865928850221e-02 6.4256178787048243e-02  0.0000000000000000e+00 2.6138946948190554e-02 6.3512450957787750e-02  0.0000000000000000e+00 2.6322086923769649e-02 6.2797266705399590e-02  0.0000000000000000e+00 2.6501893232668265e-02 6.2110092742141861e-02  0.0000000000000000e+00 2.6678785695416395e-02 6.1448028786560055e-02  0.0000000000000000e+00 2.6852954293716851e-02 6.0809686627929960e-02  0.0000000000000000e+00 2.7022948466015651e-02 6.0198942481359756e-02  0.0000000000000000e+00 2.7190333867744196e-02 5.9609314196892436e-02  0.0000000000000000e+00 2.7355645740314686e-02 5.9037960087449229e-02  0.0000000000000000e+00 2.7516460943827988e-02 5.8492458098537162e-02  0.0000000000000000e+00 2.7675908361022628e-02 5.7961577336421204e-02  0.0000000000000000e+00 2.7832447728980466e-02 5.7449374793920031e-02  0.0000000000000000e+00 2.7985984913343372e-02 5.6955828337741606e-02  0.0000000000000000e+00 2.8136994707482786e-02 5.6478587270614521e-02  0.0000000000000000e+00 2.8285363681304247e-02 5.6017455058476974e-02  0.0000000000000000e+00 2.8431657697134440e-02 5.5570187409445353e-02  0.0000000000000000e+00 2.8576443871352220e-02 5.5134539615211975e-02  0.0000000000000000e+00 2.8716582772218644e-02 5.4719381083926530e-02  0.0000000000000000e+00 2.8853720042687027e-02 5.4319299881769353e-02  0.0000000000000000e+00 2.8991196338506192e-02 5.3924087356876059e-02  0.0000000000000000e+00 2.9124407683231639e-02 5.3546696363814594e-02  0.0000000000000000e+00 2.9253822009053236e-02 5.3185286644872265e-02  0.0000000000000000e+00 2.9381447230390156e-02 5.2833655447273441e-02  0.0000000000000000e+00 2.9505812882208417e-02 5.2495471685122565e-02  0.0000000000000000e+00 2.9628388756951382e-02 5.2166592880175784e-02  0.0000000000000000e+00 2.9745797869972963e-02 5.1855304920914405e-02  0.0000000000000000e+00 2.9861789876244792e-02 5.1551675057677881e-02  0.0000000000000000e+00 2.9973911436877571e-02 5.1261512819465858e-02  0.0000000000000000e+00 3.0083377105595797e-02 5.0981347481261464e-02  0.0000000000000000e+00 3.0190612541275523e-02 5.0709922264705692e-02  0.0000000000000000e+00 3.0292589503457566e-02 5.0454760922021440e-02  0.0000000000000000e+00 3.0390738233226942e-02 5.0211480300342927e-02  0.0000000000000000e+00 3.0487685324447046e-02 4.9973481576921448e-02  0.0000000000000000e+00 3.0579744601117124e-02 4.9749644226668992e-02  0.0000000000000000e+00 3.0667387989540489e-02 4.9538519634456192e-02  0.0000000000000000e+00 3.0752041187965148e-02 4.9336214785898440e-02  0.0000000000000000e+00 3.0833377038462395e-02 4.9143441087537827e-02  0.0000000000000000e+00 3.0909722617045526e-02 4.8963862833538270e-02  0.0000000000000000e+00 2.9545521368959438e-02 5.2388725891494972e-02  0.0000000000000000e+00 1.9823579995810886e-02 1.0473826856756213e-01  0.0000000000000000e+00 3.0795679528918447e-02 4.9232964273863804e-02  0.0000000000000000e+00 2.2115088291496592e-02 8.4647173754101690e-02  0.0000000000000000e+00 3.0917184062359840e-02 4.8946611333296072e-02  0.0000000000000000e+00 1.8329487394259068e-02 1.2437626324586550e-01  0.0000000000000000e+00 2.9040442142200949e-02 5.3785115087575094e-02  0.0000000000000000e+00 2.6336169370107042e-02 6.2743548261834425e-02  0.0000000000000000e+00 1.7469244322060474e-02 1.4021808421898707e-01  0.0000000000000000e+00 2.0242752757303060e-02 1.0036433555918368e-01  0.0000000000000000e+00 2.8337756916909682e-02 5.5856699121102187e-02  0.0000000000000000e+00 1.8458949137959313e-02 1.2234687135637623e-01  0.0000000000000000e+00 1.9430206100088391e-02 1.0922687788573490e-01  0.0000000000000000e+00 2.7425860260973621e-02 5.8798795261130660e-02  0.0000000000000000e+00 2.1476390901852944e-02 8.9411635302938872e-02  0.0000000000000000e+00 3.1263506098507671e-02 4.8149076122723851e-02  0.0000000000000000e+00 1.7881370756138038e-02 1.3205673756757091e-01  0.0000000000000000e+00 1.7529059893996522e-02 1.3895781129880660e-01  0.0000000000000000e+00 3.1501525223083561e-02 4.7615792307246357e-02  0.0000000000000000e+00 2.6229953135584252e-02 6.3155505110954774e-02  0.0000000000000000e+00 2.2665813493035616e-02 8.0945735770356658e-02  0.0000000000000000e+00 2.4864444906422940e-02 6.8965639037761553e-02  0.0000000000000000e+00 3.1512821608647226e-02 4.7590859387301170e-02  0.0000000000000000e+00 1.7381453969337431e-02 1.4211998608075149e-01  0.0000000000000000e+00 2.3999053644983726e-02 7.3227462782336189e-02  0.0000000000000000e+00 2.3843315620188169e-02 7.4048430901922091e-02  0.0000000000000000e+00 3.1398526804142256e-02 4.7845152443570349e-02  0.0000000000000000e+00 3.0215584563217081e-02 5.0647418490121811e-02  0.0000000000000000e+00 2.0774941834693583e-02 9.5318615853981353e-02  0.0000000000000000e+00 1.7845639797220005e-02 1.3271999026503781e-01  0.0000000000000000e+00 2.7963098745181426e-02 5.7030143236471723e-02  0.0000000000000000e+00 3.0131440070933078e-02 5.0860192967346292e-02  0.0000000000000000e+00 1.7359000990608182e-02 1.4261708734949938e-01  0.0000000000000000e+00 2.4955155743205910e-02 6.8550064815974365e-02  0.0000000000000000e+00 2.3046301400940862e-02 7.8574650149451336e-02  0.0000000000000000e+00 3.1231019458726320e-02 4.8222753038021003e-02  0.0000000000000000e+00 1.8894380122649695e-02 1.1605332842220625e-01  0.0000000000000000e+00 1.9148768105125256e-02 1.1269658109827020e-01  0.0000000000000000e+00 3.0597303106317066e-02 4.9707495054516278e-02  0.0000000000000000e+00 2.9032286661441916e-02 5.3807129885529721e-02  0.0000000000000000e+00 2.1444112756446983e-02 8.9664433070746702e-02  0.0000000000000000e+00 1.7625830626421434e-02 1.3697606575373797e-01  0.0000000000000000e+00 2.7199389894130902e-02 5.9579640794452847e-02  0.0000000000000000e+00 3.1389699788434387e-02 4.7864984699661967e-02  0.0000000000000000e+00 2.8514684514731877e-02 5.5320747841045820e-02  0.0000000000000000e+00 1.7393700731160321e-02 1.4185168743981061e-01  0.0000000000000000e+00 1.8064052392021017e-02 1.2879260130574899e-01  0.0000000000000000e+00 2.5662669403264563e-02 6.5450872176356270e-02  0.0000000000000000e+00 2.0751028823520635e-02 9.5535868608147445e-02  0.0000000000000000e+00 2.9894430547082934e-02 5.1467163808230888e-02  0.0000000000000000e+00 3.0473224076755703e-02 5.0009307490732548e-02  0.0000000000000000e+00 2.6930282569082108e-02 6.0530544550799543e-02  0.0000000000000000e+00 1.7708212752955393e-02 1.3534239995118447e-01  0.0000000000000000e+00 2.5668995440284920e-02 6.5422761442256297e-02  0.0000000000000000e+00 2.0303528461896800e-02 9.9759361115352038e-02  0.0000000000000000e+00 2.9678936178826613e-02 5.2032811285930909e-02  0.0000000000